# vtk DataFile Version 4.0
vtk output
ASCII
DATASET POLYDATA
POINTS 40962 float
24.6307 -22.6927 62.4838 30.8581 -51.4018 38.4749 62.2632 -9.10844 34.1427 
36.7296 37.7767 44.7967 10.6155 17.0189 44.9042 8.48631 -54.3999 40.8953 
17.9937 -91.0344 -7.51516 48.8985 -41.2909 8.11569 38.9738 -8.48963 9.75426 
12.8644 27.8685 4.47664 10.039 -36.0675 5.94616 42.2258 -13.171 -12.3932 
9.91118 0.166702 71.2078 13.0137 47.7498 51.9222 28.9508 8.82859 59.8902 
2.8518 -42.2506 60.8936 12.5623 -23.2341 43.8119 29.2723 -40.3228 65.768 
19.3505 -65.6395 53.6735 39.2359 -18.866 46.5825 43.0575 -31.3418 37.5579 
37.544 3.15589 36.0264 45.723 25.6253 22.5923 41.3874 -13.2844 24.6549 
26.5287 61.6411 19.897 28.1429 23.012 9.89094 4.61842 42.4151 16.5372 
-0.20839 -11.4565 28.5148 11.2259 -15.7792 -4.59378 6.28393 -50.8901 19.0542 
16.8574 -78.5256 24.4334 11.4536 -70.7666 0.121772 29.9082 -71.828 20.5617 
45.6037 -59.0318 30.8785 44.6456 -62.7872 4.37937 52.3747 -41.9938 24.9511 
64.0917 -14.1595 11.9811 27.7477 1.07638 -10.0472 48.0696 15.0052 -8.14545 
27.1726 -33.7944 -4.7831 32.6292 -62.7168 -15.9961 60.089 -27.8217 -7.53416 
22.1099 -13.8173 68.8374 21.3441 6.57395 61.2465 24.1393 -9.11796 53.4828 
13.8481 -31.9582 72.6808 7.36364 -21.4769 67.5424 22.1394 -32.9788 56.3744 
12.7809 -44.2898 62.6874 37.7495 -18.0004 64.2872 33.9426 -31.8995 48.1023 
37.8084 -8.19027 54.5479 38.482 33.9179 31.0284 47.6112 16.5849 35.9314 
41.8958 19.4879 41.7783 31.4326 50.5276 32.4679 40.562 42.6356 18.9525 
23.3359 40.2392 42.7806 20.4304 60.8651 33.9631 2.94025 6.49823 40.6748 
-0.408745 13.7684 27.7746 4.49637 34.8702 37.2532 8.95379 -3.92571 48.8508 
2.4877 -15.4974 39.0379 5.32952 -69.0432 32.6941 13.6054 -63.1507 20.493 
12.3881 -51.5436 29.9358 9.14091 -63.3496 48.4095 12.6796 -75.13 39.9154 
38.3796 -57.1768 37.6138 40.2995 -70.0493 28.4284 31.4847 -64.9742 34.9979 
35.215 -40.8497 38.9049 45.1077 -46.6981 38.6155 55.952 -12.4579 21.7322 
41.3421 -30.6517 19.7639 57.1209 -27.0204 22.8943 37.9864 10.1842 14.7443 
40.8384 7.84229 -3.20151 45.7887 0.962398 4.03058 10.1659 3.59334 1.20954 
32.6411 -12.4435 -2.23866 20.9212 3.30966 0.104723 21.5014 -53.3381 1.25586 
12.3384 -56.4978 -4.1595 12.6707 -31.805 -0.841001 32.833 -75.3609 -4.77159 
43.6692 -67.3045 -9.65331 21.9476 -77.7711 -22.4929 54.0557 -28.3967 5.10175 
49.1509 -18.8287 0.33592 56.548 -34.3147 2.08994 6.20826 9.30493 57.5531 
6.4488 34.0308 49.1356 10.0913 25.2037 66.7238 21.2568 26.2707 51.6035 
32.5123 23.8818 51.8118 14.175 -48.9051 51.9157 14.9106 -41.0741 40.6329 
6.98534 -32.8146 47.8138 7.21874 -10.721 57.4398 30.8746 -45.463 49.0689 
30.4344 -60.9958 48.636 21.697 -49.7372 53.2314 12.2541 -57.4964 63.7792 
44.5928 -12.8966 34.5875 52.4418 -23.3882 37.6005 47.5792 -21.7203 49.3782 
43.5841 -38.6497 52.6679 38.1769 7.1854 48.7724 48.5305 -4.88441 45.7215 
58.9456 2.31443 33.912 31.3637 13.2311 25.9991 35.2025 -12.4196 23.1233 
40.4868 9.82372 18.3661 56.2603 7.44627 19.5509 14.7083 48.6025 3.21301 
22.1359 25.949 0.0506486 30.0518 37.2668 13.624 32.9329 28.9427 20.0307 
8.05555 48.1637 34.6233 4.19338 57.4529 17.1109 2.44578 35.4376 3.83848 
5.23099 -26.9019 16.8649 15.9563 -27.692 5.12168 2.65774 -12.0919 12.4819 
2.75725 10.8199 11.9881 3.22232 -37.353 35.8246 3.10996 -34.1549 27.653 
5.30788 -44.7922 7.77471 9.35616 -87.2159 8.46856 12.1962 -83.3488 -6.09224 
3.4878 -71.0073 13.425 19.166 -57.0844 9.14207 24.4103 -66.714 37.2059 
24.1627 -76.5607 18.5107 25.9771 -80.5981 5.74855 43.1836 -50.6562 17.9407 
51.4789 -54.156 6.26833 43.8996 -60.614 14.9472 42.4802 -74.9324 11.7404 
59.6027 -35.2473 38.247 53.2959 -51.279 27.3471 55.8789 -44.6202 12.7679 
41.8697 -14.4208 10.681 37.106 -26.9648 18.8903 55.0422 -31.4763 15.3901 
28.9639 9.35602 -1.55993 31.1313 20.4728 -18.4891 32.9529 -0.248383 -20.1437 
49.2009 4.60671 -18.5811 31.1742 -28.5325 -1.00737 18.0154 -12.4396 -9.72165 
29.8219 -21.342 -12.326 10.9703 -72.14 -19.0551 27.1225 -50.8868 -8.36296 
41.2568 -36.526 -15.9971 52.4768 -49.3636 -3.68424 46.0211 -45.1042 -10.9731 
56.4218 -22.7299 -14.6399 55.5948 -0.930193 4.643 63.2873 -3.53036 -4.58184 
20.7194 -19.1946 61.7685 22.3141 -10.9252 59.13 23.6763 -17.81 54.0301 
19.5486 -25.9878 68.9496 15.7227 -23.4979 65.1898 26.9827 -31.0458 68.7317 
18.5667 -34.2673 64.7525 29.9175 -21.871 62.0383 33.9133 -31.4128 63.7965 
28.2973 -15.415 52.1222 36.3862 35.4233 35.5855 39.7578 28.2244 36.9811 
43.6236 30.5115 43.293 35.6358 46.668 40.4605 36.6281 42.6186 31.0335 
27.8455 37.5825 42.0326 26.346 43.833 36.9159 3.91962 13.7185 45.1082 
2.66607 20.0073 38.2741 8.51194 25.6437 41.6593 10.4903 6.50606 47.2188 
3.0001 2.52124 46.9914 7.22852 -59.9843 36.6102 5.91981 -59.1367 31.3645 
10.9372 -52.4618 35.0713 8.12648 -58.8555 44.7201 7.45339 -64.9879 40.6865 
32.8224 -52.0759 33.5647 35.2592 -60.8181 33.4014 29.5285 -56.1094 34.0448 
34.0496 -46.5419 38.6821 35.9027 -46.6733 34.5052 63.2561 -12.6632 24.7554 
55.1326 -19.5629 23.403 57.2036 -19.6168 29.7784 39.0297 0.066458 11.3737 
39.0831 -3.92419 4.53468 39.1628 -9.52155 3.89744 10.1803 17.333 0.712577 
16.6111 3.04015 3.0481 15.3896 15.9715 0.92915 18.4735 -44.8174 2.06694 
17.6714 -43.2704 0.381179 11.8842 -33.7444 3.07884 24.8566 -83.2025 -7.23002 
29.2905 -81.462 -13.6851 21.1735 -86.6032 -16.9951 50.0466 -35.1137 6.28261 
48.6547 -30.8838 3.30826 51.8342 -37.8356 4.49227 4.00718 5.26221 66.1765 
4.03112 17.5074 63.3339 10.6036 12.7812 69.3619 23.7976 6.89117 56.0887 
21.4506 16.8157 56.879 24.7338 16.5056 53.2375 25.8319 25.4058 51.9307 
31.4942 18.4754 58.002 7.59803 -48.0938 54.1851 10.638 -42.5374 48.2568 
5.87833 -37.4095 55.0859 9.99284 -11.6313 71.9721 6.20106 -16.8197 62.8055 
4.61158 -6.05885 65.6001 7.63706 -0.867901 58.3987 29.0728 -43.7231 54.1787 
26.2105 -47.4644 50.8299 23.2472 -44.1943 57.1241 6.47807 -46.7778 64.7507 
12.2624 -50.7142 69.4372 8.77414 -51.9046 61.9309 12.4352 -52.393 57.939 
40.9068 -16.3685 38.9279 44.43 -20.1267 39.5761 36.4394 -23.035 39.6184 
31.1225 -36.4726 54.0455 39.4714 -32.4573 58.1972 37.8863 -42.4267 60.7222 
35.8037 -42.5833 50.1228 38.4553 16.7447 52.2501 38.6882 10.3929 58.3368 
44.7993 -12.4751 55.9304 44.9053 -2.76943 52.3024 50.5905 -13.7171 48.3873 
51.2529 -10.1194 40.4199 35.5915 21.847 25.6133 34.9054 10.7016 23.6022 
42.4962 19.1834 23.9223 40.8824 10.0084 36.7561 47.7148 9.50343 26.796 
46.1856 4.78483 29.6589 56.5889 7.14438 27.4612 47.3311 3.37549 35.4891 
19.6939 54.8612 11.7844 23.2381 42.6505 10.3335 28.3401 48.8927 12.0748 
50.8576 36.2928 19.847 48.1485 34.1308 12.6502 37.7303 30.3992 21.7205 
29.3776 24.3819 26.6871 3.70826 44.4681 54.4185 7.421 41.898 42.336 
5.08631 51.995 44.76 20.5884 57.2345 24.3221 8.91422 66.4505 26.786 
12.3413 61.8264 15.7608 6.88411 59.4263 4.5904 1.91089 -19.5931 21.5102 
5.255 -19.1441 15.5347 2.03928 -10.6457 20.5393 -0.27512 30.4226 23.9282 
-0.119475 13.4528 19.3557 3.70096 27.6816 14.8358 3.40723 24.1446 8.51751 
6.62375 36.8315 11.0011 14.4268 -32.1968 40.3938 5.52597 -40.014 43.1454 
6.87654 -31.0499 44.1563 1.82329 -13.5726 36.6188 4.30165 -24.649 33.8835 
0.367475 -22.7348 28.6321 0.967839 -29.8761 21.1278 8.20415 -84.9166 22.7844 
6.13969 -80.206 11.0609 9.54841 -76.1121 18.9253 3.97772 -61.3797 15.6742 
19.614 -58.9338 15.5684 12.7662 -55.1782 13.7201 14.6434 -53.8407 8.49126 
3.80176 -48.5142 11.9587 26.1608 -64.7333 52.5622 24.5792 -62.8048 42.6537 
20.9295 -66.6781 44.6601 14.8183 -77.1133 32.8278 20.5736 -73.1675 30.7706 
20.7694 -84.2445 24.5395 16.923 -84.2016 14.1695 43.7863 -54.8965 24.0578 
44.4513 -55.0439 17.2418 43.7819 -58.7961 22.7363 33.1992 -78.5109 28.9166 
39.082 -72.5948 20.9454 33.9065 -82.0331 17.1272 35.377 -81.0444 6.56435 
29.5999 -73.8148 10.965 47.9881 -28.1507 37.4147 54.6922 -28.8025 35.409 
50.5172 -33.9195 38.1432 48.4559 -54.6756 39.0254 51.7546 -50.5204 37.0367 
51.8357 -56.8559 29.3641 48.2352 -51.9768 21.89 36.1168 -13.1091 26.0144 
32.7456 -22.6392 18.832 34.0777 -23.2573 22.7135 44.4851 -36.9599 23.6421 
42.454 -35.5647 17.553 52.7775 -38.5775 19.004 63.3093 -38.4821 13.9426 
60.9641 -44.9145 19.0882 29.7056 22.367 0.652366 26.5626 15.6509 -0.96494 
32.1644 18.0787 1.60057 44.7897 24.7075 -0.340735 35.6885 23.8096 -7.53331 
42.8634 23.0333 -16.0018 40.5824 12.859 -19.8072 50.7514 12.0005 -16.662 
14.4091 -20.9219 1.86694 25.6217 -28.8356 4.32871 25.3505 -22.6273 0.822021 
35.8606 -6.59319 -6.80434 33.3449 -13.739 -5.55713 21.758 -3.85817 -7.46903 
25.0199 -7.25003 -18.0496 20.8841 3.99128 -17.8091 11.1737 -77.0789 -3.94282 
6.33983 -82.2737 -14.3121 3.06896 -72.146 -10.4861 21.6572 -45.1335 -5.92085 
22.2264 -53.0167 -8.73428 30.2772 -41.6201 -4.59759 25.3285 -35.4616 -7.52053 
32.2232 -29.3054 -6.49943 45.5055 -57.2829 6.14411 53.9661 -53.2736 0.780557 
45.4734 -56.837 1.05201 40.418 -65.7956 -17.4038 42.59 -55.5777 -8.0103 
41.9853 -51.6157 -11.707 42.3254 -40.0218 -9.66117 38.6308 -49.9737 -16.9555 
53.6882 -12.4086 12.5462 55.3631 -3.66259 14.1513 61.0832 -7.00022 7.51637 
59.4016 -21.4726 -0.0878917 55.4164 -11.8306 -1.20583 63.0916 -16.143 -6.45839 
56.127 -12.6294 -10.0417 55.0074 -25.042 -9.82251 15.658 -6.38079 70.2477 
17.6414 5.54841 69.7855 20.83 -2.99984 65.214 21.8548 -1.44696 57.7199 
26.1263 -1.2108 60.7094 5.48609 -38.4763 70.4347 4.75466 -31.8738 65.1434 
9.68614 -26.9588 70.8133 15.1109 -17.4726 71.9159 22.7611 -37.0678 53.3842 
20.1858 -40.111 64.2635 15.4293 -38.5867 55.9056 12.0015 -40.3019 63.4083 
39.6542 -19.1379 55.7666 32.5646 -23.6618 47.3117 37.2316 -26.5708 55.279 
27.4002 -31.8 50.9165 33.9162 -2.5535 65.9193 30.0411 -9.59595 53.7916 
36.1654 -12.4933 53.0814 49.7351 32.2808 27.0712 53.6475 23.1071 29.6444 
44.429 26.6885 33.7404 39.8626 18.906 37.6142 34.8942 11.6046 39.2876 
28.5572 51.1958 24.5611 38.5177 54.8741 19.4205 38.8533 49.776 26.8139 
40.7002 40.02 25.5131 20.8299 47.1301 49.2598 15.3139 54.9939 42.7671 
23.9421 51.6074 40.1362 24.3658 50.2329 30.2361 0.155188 -2.51046 36.2748 
[...]
POINT_DATA 40962
FIELD FieldData 2
thickness 1 40962 float
2.21145 1.92159 2.91933 2.26847 1.79072 1.37804 1.64873 2.30572 4.00625 
2.39368 2.0578 2.67989 2.26817 3.82306 2.56596 2.50332 2.79645 2.81367 
2.8774 3.70507 2.42434 2.36872 1.87205 3.34105 3.39965 2.80979 2.38005 
0 0 2.43418 1.12824 2.48523 1.85699 2.51547 1.51817 2.3162 
3.25957 1.14231 2.63864 1.83317 2.27355 3.01044 2.88491 1.7587 2.64099 
1.70546 2.88086 2.22819 1.46456 3.10233 1.49308 2.5307 1.45197 3.04001 
1.7552 1.79558 3.09952 2.11109 1.8874 2.70383 0 3.18365 2.90122 
2.73367 1.7518 2.21904 1.46166 2.61007 2.93866 2.81396 1.47666 2.01251 
1.60214 2.51284 2.24916 2.26754 2.42658 2.42814 3.85048 2.17253 0 
4.45883 2.63336 1.62577 2.06723 2.71129 2.12713 1.13997 2.29003 2.08566 
2.54424 1.91746 2.19087 3.36747 3.54193 1.94053 3.11024 1.54503 1.95693 
2.67589 2.12608 1.43358 2.46945 2.35859 2.53922 1.33233 1.43635 1.62336 
2.57913 2.40708 2.51338 2.93451 3.13821 3.01681 2.29093 3.057 2.3239 
2.84919 2.48219 1.96684 2.33349 3.08036 2.51208 1.08792 0 0 
3.05191 2.64072 1.66601 1.79782 1.64874 1.39846 1.72597 1.36556 1.76278 
2.42521 1.89706 2.31406 2.34703 1.93571 2.90842 2.63842 1.33379 2.37768 
1.57866 2.22089 2.1133 3.02145 3.44384 2.95143 2.63259 0 3.15561 
2.825 1.22558 2.04408 4.27911 2.4872 2.28136 2.99026 2.9484 3.91759 
1.36696 3.02485 1.46689 2.59092 1.46614 2.18682 2.29488 2.35485 3.125 
1.28416 2.15794 1.99989 3.56538 2.81877 1.41623 2.57113 1.8774 3.452 
3.33129 1.88478 2.36941 4.08236 1.70498 1.27272 2.70507 1.2143 1.57638 
1.32526 1.83243 1.94627 2.26942 1.30905 2.58446 2.91995 3.14326 2.77588 
3.12678 2.51302 2.94754 0 2.36022 1.9233 1.15892 1.18293 1.30934 
0.97588 2.17839 2.67077 1.92447 2.13929 2.39057 2.78535 2.07942 2.35739 
2.07034 2.86533 1.86209 3.13119 2.06286 2.17354 1.49039 2.84103 1.42222 
1.78983 3.0738 2.61035 1.29913 1.30761 1.71956 2.83406 1.56286 1.74871 
1.98329 1.83916 1.15892 1.67942 1.62358 1.44172 1.90984 2.58869 3.05726 
3.65555 2.56112 2.1591 3.0233 2.5456 2.20579 1.98908 1.88613 1.82972 
3.01956 2.61491 1.98625 3.74942 2.5639 3.02198 3.36682 3.17727 2.11203 
1.67614 2.84401 2.97806 1.96755 1.79906 3.43889 4.01862 2.37201 1.12428 
0 0 0 0 3.18597 3.76445 2.44872 2.73661 2.25984 
3.06218 0.46798 1.64797 0 0 2.07822 1.18862 1.71994 2.56189 
2.28817 1.26403 2.29453 2.81121 2.66394 1.79799 1.5367 2.01314 2.07975 
2.41091 1.70663 2.18486 2.24521 2.04112 1.40895 3.08478 2.20684 1.98198 
1.86361 2.67716 1.73812 2.40972 2.03009 2.08875 4.13501 3.91996 1.90996 
3.37333 2.43869 1.96862 2.40195 3.08062 3.13999 2.9747 3.10145 3.81889 
4.34111 3.71784 3.86375 4.29964 2.64308 4.20821 0 0 0.94808 
1.42639 1.54561 4.06365 2.21222 3.29284 1.93309 1.4951 1.27167 1.68252 
1.61166 2.32337 1.7317 2.55747 2.50979 2.67373 2.18246 2.26568 2.47637 
2.31325 2.72174 2.5405 2.07297 2.40648 2.21534 3.17729 2.24081 2.8751 
3.46452 3.43619 2.87235 3.17608 1.81139 2.2816 2.46844 2.18737 1.4041 
2.36339 3.2129 1.19125 1.37768 1.28666 2.36549 3.27483 1.43373 3.41367 
1.73682 2.61731 2.77914 1.144 2.40629 1.57929 2.87103 1.78917 1.69468 
1.27793 1.18546 2.10762 1.62607 3.58465 3.43619 1.9771 2.20615 0 
0 0 2.63626 4.06947 2.22437 2.97904 2.99158 2.95613 1.67327 
1.56023 1.31715 1.49944 1.52398 2.36684 1.74268 2.32029 1.77931 2.94383 
1.77291 1.53936 2.27291 4.15769 1.71991 2.15584 2.78771 1.57907 2.4844 
2.58206 2.27821 2.62386 1.31029 4.06617 4.54057 3.79123 2.45672 3.38372 
0 0 0 4.67829 3.7465 1.43184 1.63215 1.27614 2.41622 
2.71731 2.36506 2.74479 2.63754 2.18486 2.41081 2.50802 2.7199 2.76504 
2.80119 3.69036 2.89309 2.29943 2.75318 3.43966 3.77207 3.22277 2.25149 
2.44135 2.50849 1.87004 2.13686 2.66284 1.9621 1.55465 2.62558 2.33879 
2.38399 3.1235 2.68567 1.69924 1.8209 2.47435 1.85744 1.89484 1.97334 
1.60256 1.42529 2.28128 2.59841 2.25717 3.19758 1.7515 1.9439 1.30975 
2.78497 2.79127 1.48555 2.68923 1.61068 2.21405 2.01961 2.0552 1.70285 
2.81678 3.05328 2.43886 2.94711 2.95545 2.35433 1.21921 2.1509 3.40577 
2.32108 2.36344 2.71596 2.65679 2.67037 3.08208 2.21545 2.61962 1.59694 
2.26539 3.25809 3.40769 2.47152 2.36232 2.74794 1.96917 2.63403 2.9912 
2.89968 3.1274 2.95283 3.2603 2.47041 2.34341 2.6668 1.41746 1.94922 
1.2654 1.67384 0 0 0 0 0 0 0 
2.95278 2.25595 2.07644 2.8268 3.25732 2.56448 1.95202 1.47033 1.32092 
3.05583 1.93329 1.7903 1.2528 1.8001 1.28375 1.16416 1.69253 1.91763 
1.4888 2.75703 1.86769 2.26425 1.44 2.33107 1.38528 1.15925 1.38416 
1.89924 1.54645 2.52739 1.74027 2.16174 1.63269 2.26333 2.87512 2.17028 
2.08331 2.70137 1.58788 2.67635 2.53206 1.88822 1.82591 2.38643 2.86614 
2.82503 1.37016 2.37297 2.5425 2.03231 2.24629 1.8115 1.40972 1.26391 
2.32711 2.6134 1.92682 3.55243 1.42433 2.89684 3.46133 4.50882 3.07042 
4.29685 3.89627 2.68984 4.29709 4.94026 2.89889 1.35329 3.49272 3.01208 
2.63858 2.71987 2.89777 2.30926 2.98283 1.18232 1.56302 1.78401 2.07895 
2.45715 1.8486 2.98811 1.83311 2.92473 2.84687 3.31887 1.85066 3.957 
2.33925 1.58658 2.58098 2.9871 2.35885 3.03295 2.44879 3.05165 1.84056 
2.59916 2.33476 3.37491 1.91695 1.32099 1.61603 1.91545 2.05226 2.2612 
3.35485 2.60339 2.59146 2.87253 1.74098 2.70653 2.98169 2.715 1.49088 
1.52366 1.28961 1.74892 3.65427 3.31858 1.71407 2.00281 1.87632 3.49059 
2.39441 0.94248 2.49437 1.56383 2.55475 1.54814 2.77588 2.51765 2.17889 
3.56614 3.24865 2.75706 4.14181 3.28857 2.49195 1.84254 2.70843 1.71921 
1.80196 1.60859 2.15116 2.53281 1.21823 2.50292 3.12534 1.99735 2.97093 
2.9792 2.15609 1.75949 1.71462 3.05174 3.41063 2.07225 2.90564 1.46545 
2.82269 1.72397 2.67136 1.46029 2.35674 2.35578 2.00915 1.6648 2.16393 
1.93408 2.13505 1.94398 2.01217 2.44105 2.7073 1.52338 1.48881 1.72734 
2.11099 3.54735 2.19626 2.85195 3.15067 2.52718 1.7849 2.62755 2.70562 
2.81191 2.35518 2.62404 2.3775 2.10222 2.37137 3.45232 3.2196 2.85683 
2.54341 2.30126 2.89182 2.57747 3.93844 3.15202 2.46529 1.80894 1.79104 
3.528 1.91035 1.09317 0 0 4.05971 1.99284 3.18523 1.96232 
2.33617 3.47168 2.89313 2.79852 0 0 0 0 2.3688 
2.16939 1.79521 2.81587 2.80435 2.42251 2.4357 2.27639 3.2439 2.12581 
1.95417 2.70238 2.3747 2.54386 2.42402 1.83896 1.60827 1.62607 1.05506 
1.11072 1.39291 2.68005 1.71012 2.51051 2.73561 2.36944 2.12893 2.63561 
3.25476 2.33443 3.03484 3.24172 2.0348 1.88776 2.20886 2.64521 2.46051 
1.81065 1.94716 2.37881 3.26989 2.58117 2.926 3.32218 3.58531 4.1576 
0 0 0 0 3.09854 4.82231 4.34421 2.26379 2.63249 
1.16411 2.6859 1.8726 1.62363 1.9428 2.06327 2.01403 1.73012 2.45236 
1.63231 1.90466 1.54474 2.40041 1.89167 2.35827 2.62819 2.4411 3.09678 
3.87363 3.0506 4.48745 3.22022 2.21753 2.77335 1.83328 2.58935 1.32685 
2.37872 2.65256 2.19306 1.6728 1.8981 1.30315 1.27957 2.12261 2.26796 
2.82749 3.26436 1.33642 1.16002 1.84501 3.15689 2.46918 3.11766 3.08785 
2.33225 2.48571 3.34551 1.68673 3.22826 1.37056 1.50408 2.32516 3.03546 
2.21452 1.89424 2.26129 3.06023 2.46666 2.59798 2.65009 1.35905 1.45325 
1.88113 1.72021 2.39712 3.07551 2.49882 2.87041 2.11999 1.4227 2.35567 
3.22413 2.46407 3.04207 2.30817 2.59887 3.19787 2.63808 2.26939 1.61016 
0 2.12827 2.97895 2.88165 3.35465 2.81656 3.33276 2.09569 2.24891 
2.2753 2.71727 2.6872 3.2887 1.52763 1.24824 1.62562 1.3965 2.67663 
1.49797 2.57881 3.72316 1.82094 3.32794 2.972 2.40399 2.74241 2.82123 
1.68899 1.41043 2.98537 2.24959 1.95222 1.53235 1.03006 1.47853 3.19418 
1.76664 2.0591 2.97375 2.22751 1.86097 1.1841 1.98431 3.04403 2.53562 
1.85182 1.65545 2.58338 3.13681 2.25948 2.42777 2.27087 3.61492 3.60394 
1.08304 2.49146 2.82971 2.14306 2.90258 2.77507 0 0 0 
0 0 0 0.785 4.18147 2.01345 1.57288 0.96842 1.26012 
2.39739 1.90908 2.97786 2.37642 1.80067 2.78303 2.50469 1.77856 1.06401 
1.71423 1.06263 2.16852 1.86664 2.68223 1.73215 1.89268 1.78608 1.9969 
2.37702 2.98923 2.86833 3.28014 2.60883 3.58363 2.21939 3.19907 3.46682 
2.71066 2.37582 3.14107 2.50228 3.29661 2.82758 1.86533 2.70106 2.49029 
3.04955 2.40536 2.37136 2.31005 2.07869 1.87811 3.55106 1.97216 2.11023 
1.38676 1.27164 2.16638 1.23858 1.71947 3.31169 3.34415 3.01032 3.13027 
2.64684 3.03234 3.26873 2.91096 3.31522 2.93033 1.79361 3.16951 2.64363 
2.56716 2.15769 2.00887 2.18899 2.12902 1.30395 1.82504 1.29896 1.63813 
1.34494 1.97194 2.34693 2.32593 3.14266 2.63293 2.27689 2.57666 2.07016 
1.63494 2.81245 1.53644 2.47356 1.92819 2.56437 1.47703 1.23294 1.13602 
1.2131 1.42097 2.46425 2.57087 2.19168 1.85593 1.75683 1.8954 2.33644 
2.00303 2.25553 2.12479 2.02877 2.2678 3.0302 1.63059 2.46678 1.93135 
2.95829 2.81546 1.49121 2.32605 1.97028 1.38659 2.15113 2.02775 3.52182 
2.54559 1.78055 2.75943 1.44824 2.87833 2.97641 1.73513 1.29291 1.84431 
2.7156 2.61829 1.48315 1.3524 2.21429 2.07781 3.22401 2.18561 2.48964 
2.67291 2.37734 2.27323 3.11511 3.11126 2.93664 2.26959 1.43797 3.02214 
3.43598 2.54324 2.05848 2.27515 2.70202 3.17603 2.50154 1.78888 2.22777 
1.40811 1.50789 2.7134 2.49324 1.54358 4.12637 3.14727 2.01443 1.75548 
3.04528 2.55889 1.77358 2.90857 2.32006 2.5881 2.35641 2.62144 2.62212 
2.73557 2.5723 3.03731 2.56945 2.82577 2.09629 2.78333 2.7167 3.18423 
1.85139 3.50988 2.75251 2.43813 2.24839 2.47441 3.74816 3.06123 3.50981 
2.45713 3.0937 2.98777 2.42775 2.46142 4.49986 1.18224 2.45417 1.02017 
0.2745 0 0 0 0 0 0 0 0 
0 1.73963 0 0 0 0 0 0 2.89452 
3.33767 2.31593 1.40285 1.09482 2.20535 2.46378 1.80278 2.09639 2.18978 
2.11265 2.1406 2.90915 3.07547 3.31577 3.08219 0.89633 3.10147 2.31584 
2.11078 1.05293 1.72538 1.34242 1.09244 0.52533 0.84389 0.7904 1.30446 
1.71313 1.42851 2.02482 1.28308 1.86177 2.29487 2.29464 2.42552 1.30511 
1.91496 1.68203 1.70359 2.00772 1.30181 0.98765 1.88885 1.62968 3.1326 
2.64666 2.80184 2.57244 2.83476 2.50011 1.62223 2.81352 1.97013 2.01439 
2.07235 1.96377 1.50691 2.21341 2.32601 3.09683 2.3062 1.9319 1.80865 
1.46336 1.52824 1.55662 1.68524 1.51899 1.23928 2.1176 1.51759 1.49179 
3.01347 2.50794 1.46971 2.10462 1.85352 1.38998 2.4119 2.50589 2.02476 
1.90282 3.14584 2.43818 2.60173 2.73987 1.69133 2.62592 1.68459 2.29671 
3.1305 2.80978 1.95209 2.78142 1.53106 2.08314 1.83476 2.69432 2.58539 
2.73442 2.50161 1.74836 2.57541 2.60576 1.85809 1.83353 2.19286 1.40858 
2.41267 1.40401 2.09272 1.55322 2.64248 1.94405 1.7714 2.11384 3.18997 
2.62955 2.87519 3.62695 1.92418 2.56876 1.41396 1.42717 2.84179 2.18295 
2.40475 2.28494 1.7186 2.16318 2.28605 2.66139 3.76951 2.17245 3.13102 
2.32321 2.76047 2.27264 2.22582 3.20941 2.66475 3.09331 2.66596 3.06743 
2.46551 3.72792 4.79899 2.74255 2.40194 3.93989 4.6631 1.95165 4.22216 
4.73387 4.62874 3.98541 3.89707 3.09 4.33081 3.96867 3.44589 3.56114 
0 0 0 0 0 2.69881 2.31016 3.39271 0 
0 4.5047 2.86375 2.30618 4.58909 3.22226 4.01395 2.72192 3.8616 
2.44833 2.78668 3.02127 3.15121 2.72522 1.25803 1.03415 1.08122 1.14287 
1.4637 1.08436 1.5565 1.0777 1.84023 1.37363 2.15971 1.5497 0.96927 
2.08397 1.12105 1.5495 2.21449 2.41462 2.04539 3.0369 1.19071 3.74367 
3.07243 2.90163 2.74235 2.46127 2.50349 3.52257 1.75229 2.52679 2.13119 
2.38323 2.0881 2.70816 1.93937 2.41734 3.83807 2.88217 1.85062 2.66774 
2.86763 2.72013 2.00802 2.49715 2.69925 2.96099 1.8786 2.22893 2.11684 
3.03127 2.86974 3.10327 4.10107 2.25535 2.20631 2.05684 2.9537 2.30955 
2.1513 2.55546 2.39869 3.49541 3.94825 4.54463 2.82906 2.1823 3.54623 
1.40844 3.11865 2.53578 3.10951 2.65189 2.41269 1.52414 3.0661 2.74367 
1.92099 1.59102 1.6668 2.62978 2.55413 3.14304 2.787 3.41485 3.28802 
2.27785 2.03487 2.20337 1.54258 1.68644 2.00879 1.52176 2.43113 2.49362 
3.07493 2.50623 2.68159 1.74957 3.00982 2.20362 2.15821 1.81232 1.85386 
3.63652 2.87037 2.60718 2.73542 2.02212 2.45403 2.91084 3.03356 1.88626 
1.68525 1.69494 3.1835 2.19406 1.47333 2.53332 2.96668 1.52575 2.22748 
1.94493 1.2632 1.5076 1.7477 1.73871 1.46069 2.34521 1.43629 2.31263 
1.87431 3.06894 3.06399 3.18588 2.1277 3.23971 3.2119 2.78159 2.46261 
0.90348 0 1.00907 1.39247 3.7198 1.20584 2.08085 1.13354 1.67707 
1.34412 1.10933 1.17499 2.05134 1.27655 2.45034 2.56002 1.95307 2.93194 
2.53003 2.67218 3.10696 1.6217 2.21298 3.16395 2.05197 1.49434 2.928 
1.70448 2.69899 2.10618 1.99283 1.883 2.13804 1.74066 2.76361 1.84655 
2.51643 1.29797 2.29851 2.19542 2.2426 1.72307 2.94675 3.46412 3.22331 
2.9788 3.07462 1.80848 1.64417 2.67653 2.33283 1.51149 1.05797 1.14913 
1.42765 2.17389 2.66476 2.32311 1.36925 1.39687 1.64483 1.09739 1.1738 
1.31659 1.37496 1.35478 2.15785 1.28176 2.60352 2.9054 2.9837 2.73419 
2.69742 1.55993 2.64126 2.61699 3.01252 2.2485 3.57271 3.00238 3.45677 
3.19029 3.39811 3.07101 3.22479 2.19122 2.51826 2.38759 2.84136 2.93255 
1.82991 3.2534 2.76345 2.85116 2.56407 2.58083 2.79386 2.15394 2.39925 
2.78322 2.74082 3.64611 1.53938 3.62558 2.80359 2.91675 3.61666 1.37947 
1.2776 1.70788 1.65566 1.82486 3.44629 3.15335 3.71365 2.93737 2.88994 
2.90852 2.89776 2.40583 3.48487 3.28494 2.66636 2.2821 1.87532 0.96746 
0 0 0 0 0 0 0 0 1.85787 
2.3107 3.53066 1.99117 2.68122 2.39469 2.89049 1.76709 2.18419 2.85092 
2.53819 3.07108 1.50116 0 0 0 0 0.4885 2.15381 
1.15743 1.66762 2.09326 1.99819 2.39472 2.13421 2.11596 2.13583 2.39505 
2.23355 2.04188 2.06498 1.97709 1.89782 1.6585 1.32981 1.32748 1.85853 
1.3963 2.06861 2.62009 1.66043 1.65889 2.46343 2.73309 1.81797 2.51934 
2.2403 1.9713 1.1493 2.26969 2.05488 2.22303 1.93112 1.53953 2.49365 
2.65823 2.62539 2.39712 2.3107 1.88357 1.67701 1.74061 2.69003 2.47184 
2.10425 1.93168 1.57968 1.93234 1.42893 2.39803 3.15712 2.26914 2.33087 
2.77108 3.49154 2.53908 2.59313 1.86771 2.23783 1.87285 2.06531 2.71376 
2.70377 2.56326 2.58844 3.03879 3.78719 3.19259 2.51973 3.56122 2.77585 
3.31545 3.21728 4.22185 3.93213 3.31354 2.36758 2.55796 3.9437 2.71751 
0 0 0 1.02272 0 2.01073 2.2258 1.54875 3.87091 
3.3261 3.93898 3.11803 4.02018 2.447 1.06432 1.33028 0.99563 1.23256 
1.84572 2.4383 1.89161 2.35472 0.922 1.41679 1.75129 2.30213 2.60957 
2.26062 2.5602 2.30199 1.046 3.58448 4.29036 1.29917 1.88694 2.06208 
1.89758 2.57124 2.77101 2.28939 2.83109 3.26613 2.23207 2.97626 2.29822 
3.09309 3.44127 2.67881 2.04388 2.5109 2.36725 3.48133 2.65794 2.83992 
3.11276 2.39794 2.74743 3.55053 3.01277 2.17212 2.23306 2.71393 1.30686 
2.36886 2.22409 2.28524 2.38679 2.03072 1.51079 1.87222 1.87284 2.80829 
2.63075 2.89793 2.71555 3.39482 2.13313 1.74471 2.48868 2.10669 1.46422 
1.03154 1.90972 1.46575 1.22528 1.86975 3.08598 2.97612 2.9273 2.26282 
2.36089 2.50329 3.40064 3.22905 2.02649 1.1302 2.03013 2.35717 2.9928 
2.98274 2.42816 2.14572 1.44932 1.4547 1.89472 2.30864 2.37197 2.33838 
1.41197 2.59623 2.71062 1.51791 2.03241 1.54579 1.1763 1.53694 1.75445 
3.28728 3.145 2.97073 1.52738 2.34732 1.85335 2.57079 2.63511 2.42572 
3.12989 3.8463 3.46353 2.69734 2.71624 2.66197 2.47931 1.8097 2.21108 
1.98469 2.5211 0 0 0 0 0 2.69629 0 
0 0 2.55169 3.10532 2.1304 3.05212 2.66829 2.75688 3.13359 
2.98914 2.28142 2.90765 2.01862 0 1.87335 1.76695 1.99515 2.43614 
2.08985 1.63637 2.252 2.36455 2.05088 3.10213 1.7696 2.38501 2.55125 
2.47983 2.50712 2.30768 1.49152 3.15489 2.01301 1.59175 2.0728 1.76783 
1.61 2.40175 2.61125 2.91032 1.88108 1.00223 2.18475 2.92404 1.17707 
1.29944 2.04308 2.01615 2.34047 2.78846 2.16012 1.46647 1.94151 2.9023 
2.49613 2.84606 3.208 1.11691 1.5404 2.35677 2.88938 2.24485 2.67866 
3.15694 2.32443 2.32648 2.701 3.47447 3.99542 4.89868 3.58139 1.96358 
3.46958 2.33551 2.82826 3.26486 3.161 2.53742 0 0 0 
0 0 0 0 3.91026 3.2031 0 2.66233 1.262 
3.5008 1.47908 1.99025 1.93506 1.44054 2.10832 2.4522 1.61444 1.95471 
2.23542 2.74158 2.41568 3.36847 1.72597 1.92007 3.27031 2.77883 1.45841 
0.95247 1.05965 1.66897 2.78726 2.92651 2.18163 1.90355 2.56112 2.71034 
3.06023 2.15057 3.17444 2.85998 2.62666 2.37579 1.98962 2.4704 2.72741 
3.41749 2.40134 2.88998 2.53456 3.17805 3.13887 2.57269 1.81445 3.0581 
2.5761 2.24773 3.18089 2.67843 2.77144 2.57957 1.91679 3.77474 4.81393 
3.85045 1.54913 2.60322 2.0878 2.2956 2.28921 1.77075 3.05394 2.38612 
2.43905 2.08558 1.82383 2.15305 2.4916 1.55824 2.5963 2.31396 2.51641 
1.69932 3.06366 2.4657 2.32299 3.05662 2.63555 2.49744 1.96039 1.96464 
2.37742 1.81539 2.0893 2.96064 2.27812 1.59877 2.0868 1.87589 2.18561 
1.23394 1.4261 1.55452 2.62687 1.93768 2.32933 2.50671 2.5344 2.10062 
2.24835 2.12987 1.84023 1.62247 2.31827 1.97263 2.1443 1.70208 2.65046 
2.76529 2.13715 1.97088 2.25624 3.43114 3.43454 2.73597 2.12575 2.44117 
1.7811 3.01735 2.28412 2.47246 2.05734 1.30689 2.45923 1.96024 2.79206 
2.4002 1.30923 1.41981 1.21569 1.30127 1.49675 1.32183 2.30447 2.25404 
1.57972 1.34673 1.9818 2.06188 1.33771 2.10173 2.10606 1.95213 2.09923 
2.57544 2.04838 3.67402 1.91255 1.58894 1.37357 2.67743 1.29005 1.53871 
1.57126 1.21344 2.11016 2.75387 1.4915 2.5651 3.49417 2.44578 2.18064 
2.38114 2.85558 2.29915 2.78473 2.62456 2.29517 2.43488 1.9612 1.24657 
1.40706 4.31524 3.70213 3.34706 2.88095 3.16385 2.74053 2.60273 2.57697 
2.02797 2.37358 3.08058 2.32611 1.52183 2.61544 2.5476 2.29029 2.19824 
2.76855 3.06024 2.98517 2.74215 2.08767 2.82066 2.64946 1.80071 2.65552 
2.51898 2.16413 2.43838 2.1742 1.94456 2.86701 4.16263 3.25686 4.55427 
1.9609 2.75925 3.03206 2.39651 3.61035 3.95221 2.08536 3.39879 2.66597 
1.62601 2.67488 2.77777 2.11487 2.76598 2.99584 3.2265 2.22032 2.19457 
2.54018 2.2207 3.83294 2.83399 2.81891 2.83275 2.29126 2.85703 2.38583 
2.57772 2.65625 2.81824 1.7346 3.10892 2.88152 3.12797 2.23611 3.12697 
2.88717 2.02821 2.47131 1.79023 3.34003 2.50683 3.17217 3.21128 2.72743 
1.76987 2.00971 1.66515 0.97381 2.76481 1.09632 0 0 0 
0 0 0 0 0 0 0 0 0 
0 0 0 0 0 0 0 0 3.97727 
1.83626 0 1.88173 3.07851 3.19725 2.47151 2.67175 2.3918 2.2505 
2.51579 2.40585 2.1007 2.45465 2.58355 3.04475 2.75044 3.57866 2.782 
3.43857 2.94902 2.94823 3.06138 2.51267 1.10979 1.73361 0 1.42757 
1.91334 2.00034 1.09258 2.65834 2.07927 2.00722 1.87186 1.63898 1.3628 
0.98044 1.75445 2.11734 2.59272 1.24312 2.20217 1.28456 1.44123 2.06858 
1.65617 1.77608 1.47138 2.06959 1.11271 1.59038 1.31793 1.27619 1.4916 
2.02502 2.82666 2.55198 1.8198 2.1555 1.64072 1.68989 2.1676 2.40404 
3.27976 2.7059 2.40976 2.67584 2.03047 1.57626 1.48773 1.51912 1.7596 
1.43234 1.66585 1.74487 1.75409 1.99933 1.40791 1.48387 1.05753 1.31452 
1.34113 1.77801 1.98559 1.15501 1.84392 2.52474 2.94104 2.50379 1.86079 
2.58642 2.37555 2.49688 2.28301 2.43325 2.07494 2.01592 2.54918 2.75197 
2.17131 2.65006 2.49795 1.92941 2.16631 2.91359 2.03398 2.67778 1.69001 
2.96405 1.61388 1.1686 1.81711 1.41021 2.52264 2.51698 2.71791 3.5873 
1.44703 2.40903 2.48005 2.25893 1.63904 2.6851 1.93267 1.97314 3.16766 
1.27144 1.915 2.72502 3.12688 3.379 3.42352 2.52317 3.57053 2.2128 
3.95435 1.66134 1.97543 1.56116 1.51562 2.76856 3.18711 3.20322 2.76375 
2.1053 2.72686 1.92207 1.83321 2.377 1.98601 2.26302 2.34035 2.08195 
1.52301 3.191 2.44617 2.0211 1.84119 1.84873 2.79752 2.83055 2.47097 
2.43765 2.09894 2.11874 2.68921 2.50086 2.29581 2.46097 3.23655 3.37833 
4.83527 3.7943 0.70183 2.24204 4.13749 3.23331 4.7064 2.22446 2.34048 
3.40221 4.4643 4.05405 3.12802 4.01628 2.65357 3.53132 3.30964 2.44726 
3.35902 2.12009 3.01176 2.8719 2.36439 2.59504 2.47784 2.66356 2.2583 
2.06566 0 3.94957 0.89237 1.96973 3.39773 2.64199 0 4.46285 
2.48297 2.71464 2.41494 2.47145 2.32328 3.78638 2.22333 1.97351 2.3533 
3.59399 2.98744 2.755 3.46656 2.30663 2.31033 2.12313 1.59312 2.08111 
2.78112 1.02264 1.62693 1.55758 1.59942 2.07318 2.28993 1.49792 1.2665 
1.389 1.79446 1.98972 1.54417 1.20258 1.23867 2.64495 2.66554 2.86782 
3.16477 1.98521 2.6858 3.31026 2.21364 2.18764 3.07965 2.18016 2.02532 
2.27428 2.37825 3.19627 2.4917 3.38032 3.34103 3.36196 1.96559 2.12814 
4.01443 2.0536 2.8857 2.66154 2.21686 2.5089 2.8177 2.34244 2.71646 
2.27873 2.8695 2.82062 2.45293 3.53658 3.23649 2.73454 2.06829 2.5408 
2.51601 2.26699 2.50812 2.21258 4.12505 2.60295 2.69393 2.4545 3.35639 
2.54608 2.06047 2.73126 2.99818 2.69248 2.25994 2.43458 4.41663 4.55012 
2.71244 2.65509 2.74911 3.60893 3.74422 3.0323 2.20985 1.85561 1.61667 
2.17368 2.26116 1.94884 2.07799 2.2326 2.06009 1.99076 2.73553 1.65116 
3.06487 2.18011 2.30304 2.19804 2.11712 2.12871 2.56814 2.56977 2.21189 