# vtk DataFile Version 4.0
vtk output
ASCII
DATASET POLYDATA
POINTS 10242 float
25.4355 -22.7293 60.9172 23.3215 -22.4504 62.7689 28.0551 -23.7096 65.552 
8.57159 -53.8249 40.4268 9.15484 -53.9259 39.3216 8.5373 -55.4222 41.2093 
37.7396 -19.0979 47.0488 35.7052 -20.0721 43.3001 42.2232 -18.1556 48.1154 
28.5466 -40.0385 65.9265 30.3026 -40.8233 65.4863 29.2615 -38.9648 65.2006 
28.9438 -41.6824 65.6129 28.1858 9.07972 58.9708 30.3663 9.13603 61.0788 
29.1753 11.3811 59.243 25.7502 61.8861 19.7991 28.7421 61.1307 18.4246 
25.3383 62.2903 18.2191 4.73247 42.2333 16.3389 3.31597 41.2615 15.4878 
2.57723 41.9217 16.8788 11.5822 -20.1712 45.184 11.8936 -23.1663 43.7089 
13.1211 -24.7576 43.1304 28.1857 23.3745 10.9234 28.6968 22.0179 8.91524 
27.808 23.2493 8.814 11.2735 -70.2645 0.615975 10.8767 -71.6879 -1.53329 
12.0194 -72.0264 -1.08848 64.0917 -14.1595 11.9811 64.0672 -12.7012 10.678 
63.2756 -13.4225 12.6831 60.5789 -29.5724 -7.0477 60.0957 -23.5676 -8.18376 
61.7494 -24.7641 -7.01532 25.2092 -11.8808 51.027 23.9858 -6.91116 55.2233 
23.4391 -9.78697 53.2528 22.5785 -13.3683 68.465 20.9135 -14.438 69.7983 
20.0057 -16.5231 68.4606 22.1932 -12.0678 69.9069 37.7495 -18.0004 64.2872 
39.2755 -20.2424 64.3064 38.9101 -17.8945 63.7049 37.099 -16.6911 63.3718 
35.7799 -17.1139 63.3983 30.8361 49.7834 32.7694 32.837 51.5518 33.0677 
32.0104 51.8221 30.3346 37.6259 32.9895 31.8411 39.2874 35.0622 30.0778 
38.3093 37.9977 28.3918 4.49637 34.8702 37.2532 3.42603 34.1683 35.826 
3.71912 32.4684 37.7643 4.14333 36.322 35.874 9.54768 -62.04 48.7158 
8.01969 -64.5881 47.4466 10.9835 -63.0769 50.0333 38.8676 -57.9422 38.0434 
40.8356 -57.5819 39.5568 35.9819 -53.2614 35.2891 38.7121 8.01487 14.2544 
39.3118 8.41943 13.1356 36.3836 13.7492 16.1782 20.4408 4.05051 1.62303 
21.084 2.38831 -0.971061 19.7899 3.51667 2.02253 13.3861 -50.3109 54.783 
15.4791 -47.3178 47.49 13.6829 -50.1986 52.9831 7.09191 -10.83 58.4309 
7.60069 -10.2127 55.1006 6.79675 -12.1832 56.9826 44.2114 -13.1738 34.8015 
45.6213 -13.4355 34.4773 47.5736 -11.3161 32.8994 33.353 -32.2912 48.2139 
35.1701 -31.5014 47.7642 34.6846 -30.944 47.927 47.1389 -10.7122 33.0934 
42.7484 -13.6997 35.7089 56.1151 7.51387 18.9378 56.8474 5.77134 20.6735 
56.1145 6.06692 17.896 58.8329 2.49252 34.6921 59.0057 0.793727 32.8383 
58.8759 3.92648 32.6994 32.1491 29.1743 21.1964 38.5362 28.516 15.4598 
36.5749 29.1356 18.2925 30.8527 28.8367 20.5696 14.987 48.1433 3.2476 
12.0149 49.606 1.47272 13.3191 50.5945 2.86302 14.4361 46.198 1.61176 
2.2521 -10.3798 12.8172 3.65283 -13.3652 10.0828 2.6165 -13.2422 13.6489 
-0.328378 15.4111 30.1334 -0.480504 7.34122 24.8773 -0.282912 5.48792 30.0508 
2.71649 38.112 4.83128 2.05564 32.5177 2.49731 3.72013 34.422 6.21401 
1.94034 37.8076 2.75681 3.87256 -36.7682 27.1096 4.06869 -35.0406 28.5872 
2.72694 -30.224 29.5042 12.6687 -63.3377 19.4397 16.0181 -61.8642 19.743 
13.0043 -63.9079 22.1207 19.1941 -56.7804 9.66231 18.8956 -58.005 6.06006 
19.0293 -57.6186 10.3416 4.80263 -45.598 8.34429 5.85779 -43.7797 7.07975 
6.39761 -45.9273 5.96277 42.5062 -74.7551 11.2871 43.0947 -72.557 12.1588 
42.4898 -75.191 13.7232 53.0178 -51.6678 27.6811 54.3891 -51.5015 25.278 
52.2978 -50.1112 29.9758 53.2726 -52.4025 26.398 35.5749 -13.8144 23.6397 
36.9243 -13.6819 22.0675 34.8565 -11.4268 22.6934 41.6767 -29.5751 19.7457 
39.9678 -30.7127 19.7945 40.5721 -29.2083 20.159 31.1313 20.4728 -18.4891 
29.0701 22.2755 -18.3953 30.8601 22.8545 -18.1499 29.6426 19.6279 -19.4724 
32.4676 17.9544 -18.7546 31.7768 -28.4448 -1.04197 29.9934 -29.1465 -0.466167 
31.3733 -28.9876 -0.205375 30.8058 -27.5709 -1.47427 18.0951 -11.9689 -9.49748 
18.6081 -13.4095 -8.61424 19.7335 -11.0244 -7.626 17.867 -13.6369 -10.3056 
17.9545 -13.3189 -11.521 32.1479 1.61979 -20.4636 33.851 -1.5315 -19.8089 
32.4449 -2.34437 -19.6471 33.681 1.71596 -19.8222 10.9703 -72.14 -19.0551 
11.9914 -73.5016 -19.2076 8.203 -75.5962 -19.7015 12.6489 -71.972 -19.0345 
27.7198 -49.246 -7.47888 26.9623 -53.8464 -8.6722 28.5349 -48.2238 -6.11566 
26.6509 -52.4558 -9.20697 26.0177 -50.5837 -9.44853 30.823 -20.4525 -12.0123 
28.5515 -22.4395 -12.8729 28.7882 -23.2116 -11.5046 30.336 -20.2196 -13.5883 
63.3187 -3.49518 -4.55765 62.5335 -1.53262 -3.2495 63.4971 -5.33679 -2.89524 
19.7386 -25.463 68.4263 17.3395 -27.9313 69.9737 20.4875 -26.421 69.931 
31.0496 -22.8325 64.6066 28.3996 -19.907 57.7252 27.4525 -21.7308 59.1733 
32.0324 -21.0074 63.6806 35.5847 34.0272 34.5326 35.4224 36.6027 33.2043 
36.9432 37.3953 35.9113 27.9761 36.6487 42.6024 27.8758 39.9413 40.6123 
26.6368 35.7533 42.0898 35.4379 47.2205 39.9873 33.804 47.2051 39.9939 
34.9595 44.1997 42.7395 3.74361 11.261 45.6469 3.51691 15.8019 44.0391 
3.17702 11.2803 44.7854 10.2739 -52.4032 37.0002 12.3324 -51.4715 33.5949 
9.20835 -53.8843 36.4383 32.2654 -51.7241 33.5025 32.7777 -54.3147 33.0495 
33.393 -52.1818 33.7674 10.4452 17.3826 0.960208 10.7038 15.7733 0.791483 
9.48806 16.1346 0.311695 15.461 16.1832 1.00809 15.3411 14.5736 0.287705 
13.8825 16.979 1.41501 16.5846 13.7524 0.149817 12.3666 -32.9944 2.21749 
12.6597 -34.3981 1.11225 11.5075 -36.0182 2.94007 7.9353 -51.9227 61.0696 
9.91062 -52.3457 64.9239 6.85896 -52.5512 62.7989 35.8785 -23.1524 40.0384 
37.9073 -22.6412 38.7053 36.4168 -22.1258 39.2542 36.9994 -23.9249 40.3828 
31.4653 -36.965 55.3632 33.0954 -36.7502 55.3893 30.0826 -35.1652 50.6173 
39.0683 -42.1467 59.755 38.962 -41.1229 61.262 36.8873 -41.2115 62.8888 
37.1241 12.2215 58.7056 39.7169 10.4578 57.0192 37.803 12.6169 57.6096 
44.8619 -13.1372 56.3956 44.9408 -11.1714 55.0452 43.4881 -11.0032 53.9219 
50.4819 -13.7883 48.3541 51.8589 -12.7256 49.6013 50.4244 -14.0516 50.6084 
50.631 -13.1607 46.6166 20.0768 55.5146 12.1143 20.1685 52.3028 11.6235 
18.3698 54.0021 10.661 50.9171 36.0486 20.2961 50.6589 36.7722 18.4656 
50.2287 37.0709 20.8696 35.4602 21.329 25.6076 33.3557 21.3756 26.4492 
37.181 22.2661 25.1157 12.9854 61.167 16.7091 10.7179 62.5122 15.1641 
11.0973 62.3427 16.1078 12.0391 62.6387 14.7363 3.67443 28.3786 14.7658 
3.71287 26.0363 14.5249 3.63161 27.6051 15.7306 7.32139 38.3773 12.2197 
5.37085 39.1874 10.5307 6.29123 34.1948 10.1135 14.3049 -29.8186 41.0685 
13.5282 -30.824 40.7028 15.2216 -35.5015 39.6896 0.479139 -24.8057 27.3383 
0.766184 -28.416 26.8858 0.302325 -19.6749 31.117 1.40037 -18.6624 22.3385 
2.3288 -17.9556 20.9297 1.83932 -23.6968 21.6721 8.73989 -85.0943 22.9309 
6.84338 -84.6801 21.7225 8.26302 -85.5203 21.3641 3.97772 -61.3797 15.6742 
6.78579 -61.4554 15.4476 5.46156 -62.157 15.9319 13.2208 -55.7803 14.8511 
12.277 -54.5721 12.4422 15.1761 -54.65 14.2034 3.77606 -48.8614 12.324 
3.85593 -49.7987 9.28956 3.49344 -50.3619 10.9033 3.91446 -47.5496 9.96617 
25.6813 -64.8829 52.779 25.95 -65.0652 50.7247 27.2913 -64.2984 51.8794 
14.7852 -77.1338 32.5612 15.2449 -77.0056 34.0005 14.0502 -76.4604 33.6249 
20.9219 -83.9856 25.631 19.5318 -85.0106 22.9491 21.7771 -83.4183 24.6802 
51.5736 -57.126 29.4212 52.5006 -55.8345 28.8942 52.4487 -56.6123 30.5522 
50.8974 -56.3973 27.7347 43.7032 -56.0801 25.2207 44.3941 -52.5962 22.0432 
46.5578 -55.9531 26.6626 59.6203 -47.4069 22.7038 62.2654 -41.9646 15.7127 
60.3399 -44.7223 20.6919 60.4039 -46.8877 19.3249 30.1715 22.7423 0.454941 
28.6201 21.3365 0.619256 29.6801 22.6227 -1.29037 43.2975 22.6179 -16.2706 
41.8067 24.1792 -15.3506 42.8466 23.1381 -13.9477 41.9617 22.7964 -17.3448 
13.2486 -19.7562 1.33958 17.4134 -22.6677 2.44873 14.8655 -23.27 3.20243 
35.8341 -5.70027 -7.02355 35.6381 -8.57872 -6.52829 36.2879 -8.07545 -6.0456 
21.3754 -4.46289 -7.37205 23.2648 -5.50398 -7.20401 25.9457 -5.14707 -7.75731 
20.8841 3.99128 -17.8091 20.9437 2.0649 -18.1942 18.9115 4.06945 -16.3399 
23.3603 2.7632 -18.5773 11.2138 -76.4015 -4.35516 10.6765 -77.592 -5.97728 
10.9377 -78.4319 -4.77582 2.99143 -71.4134 -10.0562 3.26447 -74.2684 -11.4636 
3.25263 -73.464 -8.95539 3.42774 -72.4342 -12.7777 21.8692 -43.1791 -5.6285 
21.0393 -47.2792 -6.49432 20.5146 -45.4589 -6.29746 41.0807 -64.4042 -17.4078 
42.5138 -64.9438 -16.8395 40.3543 -67.5851 -17.0801 41.1428 -49.5668 -10.1782 
41.604 -51.6312 -10.2839 43.3837 -54.9809 -13.5712 38.7558 -50.0126 -16.9712 
40.8407 -47.6134 -17.0122 40.0351 -50.2611 -16.9528 54.6683 -11.3873 12.8647 
54.5116 -10.4354 13.6622 52.9408 -12.1652 13.7287 60.5248 -22.8987 0.180399 
60.8247 -20.1196 -0.167724 56.2132 -20.1176 -0.458689 62.9247 -16.6801 -6.57832 
63.6745 -13.9713 -5.96214 64.3817 -14.8307 -4.87704 62.4007 -14.7537 -7.06485 
24.3536 -2.23357 58.3753 27.6541 1.28227 62.278 24.5437 0.0746883 57.9486 
14.3513 -39.3716 56.6 15.2453 -39.7811 55.9919 16.8396 -38.0422 54.8786 
11.6722 -40.4638 65.6629 10.0509 -42.5212 62.2492 12.72 -39.807 59.693 
27.3856 -31.7041 51.445 26.3184 -32.1143 50.3045 29.8454 -32.2399 49.8261 
21.1374 -37.8752 54.0733 25.8785 -36.3375 53.8078 22.6282 -36.2283 51.9626 
25.8561 -37.0854 56.1793 28.1752 -1.46379 63.5389 39.5795 -19.2526 56.3799 
41.5196 -18.1289 56.3945 41.5304 -17.8355 57.5066 39.6556 -19.0912 54.3929 
40.5821 20.9254 37.9733 40.9301 17.6608 36.8274 42.0456 20.5719 37.3464 
39.0355 17.7546 37.6427 38.8986 49.5992 26.3687 39.3646 51.7839 25.1349 
38.7811 52.4987 26.8223 49.8245 31.8785 27.453 50.0844 33.1817 25.7931 
48.1566 33.3837 27.4388 51.5801 30.4529 25.996 20.9163 46.4959 50.1996 
20.5346 47.9283 48.1619 19.6528 46.6257 50.2369 23.9476 52.2349 39.6326 
23.489 53.5575 40.423 24.0752 50.4908 41.5896 0.0990456 15.0451 34.8799 
-0.070029 10.5733 34.9279 0.110329 6.77042 36.4841 1.69638 25.6139 32.4581 
1.20766 27.5387 31.0397 -0.182227 22.5381 31.8684 2.53419 42.6277 27.0501 
2.78451 40.8858 26.2086 3.42314 37.6694 28.9635 10.1774 -52.3247 26.1193 
8.7065 -52.1029 24.4983 10.1739 -53.0752 26.1412 6.55025 -74.4104 36.0058 
6.83748 -73.8281 38.7028 6.06902 -73.038 36.758 7.77352 -75.417 37.0997 
8.35925 -75.7848 35.4203 12.8349 -69.4648 28.0678 13.1091 -72.4522 29.5608 
12.3601 -70.5555 29.1947 14.3844 -71.0749 26.6701 44.5866 -62.2504 39.3897 
[...]
POINT_DATA 10242
SCALARS Gauss_Curvature double
LOOKUP_TABLE default
0.0114307 -0.00922132 -0.0102567 -0.0119602 -0.0341006 -0.0455776 0.00594254 0.00164099 -0.00448179 
0.013479 -0.00397452 0.00585041 -0.000611835 -0.00141302 -0.00587561 -0.00218886 0.0188363 0.00138898 
0.0120114 0.00659161 0.0305129 0.02671 0.0051551 0.00832649 0.0204465 0.00851565 0.00934114 
0.0183867 -0.0330814 -0.00686006 0.00858845 -0.00109421 -0.000968885 -0.0116 -0.00152302 0.000231822 
-0.00420728 0.0119558 -0.0308278 0.0427468 0.0264287 0.0208397 -0.00491945 0.0262376 0.0212199 
0.0153627 0.0163145 0.0176382 0.0129568 0.000553249 0.012907 -0.00888138 0.00758278 -0.00243784 
-0.0132761 0.0138898 0.00346014 0.00484815 0.00580291 -0.0428217 0.0335462 -0.012889 -0.00406895 
0.00486188 -0.0058923 -0.0211921 -0.0191388 -0.00252964 -0.0483392 0.0448067 -0.0929441 -0.0147282 
-0.00100131 -0.00815991 0.00594347 -0.0115208 -0.00419143 -0.00762284 -0.0132904 -0.0040429 -0.236893 
-0.0149209 -0.470572 -0.0210446 0.0318584 0.0233162 0.0265209 0.0326214 0.00490711 0.00780798 
0.0113878 -0.0130305 -0.00974248 0.00957385 -0.0149877 -0.000254988 0.00262779 0.00168461 0.00190405 
0.00418055 -0.0024689 0.00569384 -5.62929e-05 6.55894e-05 2.25642e-06 -0.00199331 0.00014031 -0.00551249 
-0.0014764 0.0132682 0.0182073 -0.00451181 -0.00746923 -0.0140747 0.00701511 -0.0492943 0.00379133 
-0.125933 0.00130865 -0.00540755 0.00395744 0.0189377 0.0378688 0.0279992 -0.0335446 -0.0318394 
0.0423824 -0.0796207 -0.0670702 -0.00141114 0.00342606 0.000244963 -0.0215202 -0.00156428 -0.0138051 
-0.0154454 -0.00779117 -0.0216768 0.0122741 0.0218995 0.0121669 -0.0154616 -0.00613885 -0.0164116 
-0.0125505 -0.00523118 0.00558214 0.00399423 -0.0113151 0.0127908 0.0100931 -0.0185893 0.00904204 
0.000147548 0.0220697 0.014728 -0.00822476 -0.0127143 -0.0056606 -0.0142045 -0.00649744 -0.00557651 
0.0140954 0.00476684 0.0051466 0.00174196 0.00706403 0.00394878 0.00313078 -0.00770641 0.00208876 
-0.0141641 0.00163187 0.00173134 -0.00362815 0.0197999 0.0240639 -0.00429408 -0.0113954 -0.00427946 
-0.00857173 0.0222278 0.0256499 0.0151176 -0.000707525 0.00233672 0.00135437 -0.0516639 0.0301197 
-0.0114447 -0.0345006 0.0105186 -0.0414471 -0.0651006 -0.0911561 -0.03345 -0.0699593 -0.0157265 
0.0113457 -0.0454888 -0.0113228 -0.0526791 -0.0182167 0.00714938 -0.02351 0.0333289 0.0424553 
0.0610791 0.0329454 0.0537743 0.00518237 0.00280788 0.00787898 0.00648696 0.00227202 0.00881713 
-0.0139073 0.00875249 -0.0176847 -0.0621823 -0.0426243 -0.0179235 0.00255717 0.00855966 0.00244359 
-0.000179799 -0.00294498 -0.00379122 -0.00197757 -0.00390785 0.00765783 -0.00646673 -0.01183 -0.0122742 
-0.00613675 0.00971506 -0.0192408 -0.00911954 -0.0286435 0.00472682 0.00580134 0.00511602 0.0111458 
-0.0182229 0.0261577 0.0294767 0.00291746 0.0989125 0.000585257 0.000202591 0.00056135 -5.76261e-06 
-0.00247331 -0.00409859 0.0108423 0.0254761 -0.00200731 0.0292315 -0.0170221 -0.0249329 0.0159473 
-0.0154849 0.0419634 -0.00523427 -0.00436936 0.000423346 0.00797262 -0.00352472 -0.00647693 0.00534606 
-0.0500663 -0.120016 -0.0923681 0.0145816 0.00748667 0.0121283 0.0169508 0.0212781 0.0320634 
0.000115567 -0.00813201 0.00879821 -0.00494941 -0.00076184 0.0041904 -0.0251698 0.00699718 -0.0153162 
-0.0157945 0.00062048 -0.0131858 -0.015352 -0.0332718 -0.00708725 -0.0318092 -0.00188456 -0.0037519 
-0.0177389 -0.00545041 -0.000318226 -0.00342333 0.000452761 0.00178104 0.00855377 0.00946016 0.0106914 
0.00741355 -0.0352006 -0.0705071 -0.128586 -0.000482309 -0.00568742 -0.00183778 -0.000853838 -0.0081995 
-0.00287119 -0.0146469 0.0149228 0.0277151 -0.0327689 0.0161215 0.0178721 -0.0234023 -0.00144367 
0.00562778 -0.00158348 -0.022386 -0.0328842 -0.0184552 0.000278363 -0.00338783 0.00210723 -0.00229462 
-0.000824301 0.00610541 -0.005586 -0.0176858 0.000881208 0.00687977 0.0276083 0.00690075 -0.00224045 
0.00121023 -0.00032292 -0.00026716 0.0136672 0.0838387 -0.0182682 0.00114303 -0.00724108 0.020719 
-0.00335653 0.0049425 -0.0128898 -0.0225488 -0.0414833 -0.00678635 -0.104123 0.00922592 -0.0141326 
0.0307384 -0.0172327 0.0287257 0.0141799 0.00402649 -0.0181597 -0.00960581 0.000746717 0.0510716 
-0.0460684 0.0348323 -0.00822695 -0.0214175 0.00419169 0.00298678 -0.00070386 0.00138759 -0.000225857 
-0.00582609 0.00216738 0.0122316 -0.00063885 -0.00171183 -0.0428116 -0.0833229 1.77265e-05 0.0234612 
0.0119948 0.01815 0.0206452 0.0343824 0.00232385 -0.00746461 0.0183459 -0.00131372 -0.0207271 
-0.0512169 0.000868085 -0.0732056 -0.0148593 0.0400247 0.0446343 -0.0353052 0.0214092 0.028133 
-0.00779101 -0.00295893 -0.00590035 0.00976041 0.00688247 -8.9375e-05 0.0187475 -0.0128703 -0.0270359 
0.0120386 0.0110514 0.00735701 0.014925 0.0101254 0.022645 0.0225691 0.0259579 0.00831005 
0.00987961 0.00772412 0.0108585 -0.00353792 8.60595e-05 -0.00133783 0.0132449 0.00477587 0.0144023 
0.0055951 0.00866525 0.00476765 -0.00209668 0.000970293 0.00368576 0.0145938 0.0579585 0.00546471 
-0.0104337 -0.0156594 -0.0088838 -0.0195555 0.00104628 -0.00149273 -0.00286053 0.00129505 0.000626095 
0.00625666 0.0326439 -0.0315072 -0.0252205 -0.0183044 -0.0451551 -0.0237928 -0.0132002 -0.0382572 
0.0544912 -0.0685593 -0.0460521 -0.0123912 0.00286712 0.00964082 0.00407213 -0.00316635 -0.00164348 
-0.00845766 0.0135384 0.0435025 0.0409505 0.0268187 0.0295221 0.036956 0.0352635 0.0184075 
-0.00965529 -0.0023238 -0.00727491 -0.00215985 0.0185657 0.00647172 0.0185384 -0.0175376 -0.00190116 
-0.00643263 -0.00040286 -0.03717 -0.00518263 0.0170711 -0.0235887 0.0160761 -0.0211315 0.00651245 
0.0155003 0.00406116 0.0112304 0.0115584 0.0219268 -0.0190715 0.00443599 0.000126684 0.0146219 
0.109647 -0.00204009 -0.00687429 -0.0101362 -0.0195709 0.00375643 0.0153095 0.00117178 0.00439249 
-0.00215535 -0.0103778 -0.00788585 0.000695152 0.0155683 -0.00660832 -0.00308436 0.022337 0.00932752 
0.0168579 0.032475 0.00339787 0.00898925 0.0171972 0.00591822 0.00983555 -0.0202571 0.0234129 
0.0144714 -0.00737413 -0.0168691 -0.00381779 0.0171443 0.0164836 0.00745706 0.0199368 -0.00808221 
-0.00534498 -0.0148676 0.0287649 0.0380899 0.00494286 0.162648 0.0204502 0.0160339 0.022366 
-0.0184807 0.0147317 0.0120591 0.0107705 0.0149715 0.0178423 0.0147001 0.0189301 0.0096618 
0.00963782 0.0225367 0.00942476 0.0109372 0.00632546 -8.12372e-05 0.0324229 0.00596372 0.00855899 
0.0138966 -0.00113232 0.00505786 0.000971792 -0.00610081 0.0066156 0.00024232 0.00659831 -0.00838891 
-0.00567691 -0.0227406 0.0220212 -0.0566128 0.0129785 0.0389841 0.00265339 0.00411258 0.00144318 
0.00425367 0.0170502 0.0161885 0.00787743 0.024378 0.00235104 0.00984577 -0.00377685 -0.0137318 
0.0127676 -0.0195085 0.0145989 0.0106851 0.00468184 -0.0142091 -0.000338053 0.0129428 0.0249464 
0.0310293 -0.000341366 -3.3447e-05 0.000399326 0.00938933 -0.00150398 -0.00450281 0.00386431 -0.00782958 
-0.00960852 -0.0197802 0.0215116 -0.0534585 0.0824548 0.0321137 0.0182102 0.0829291 -9.73742e-05 
0.000359042 0.00602103 -0.00723432 -0.00890013 -0.0335251 -0.00508211 -0.0681454 0.000798066 0.0158931 
-0.0016506 -0.00969227 0.0192876 -0.01452 -0.00186855 -0.00161247 0.0158741 0.00434509 0.00283584 
0.00636402 0.00416437 0.00152788 0.000166163 -0.000908872 0.0065215 -0.0067878 -0.0163874 0.00429992 
-0.00511451 -0.0169023 0.00155574 0.0123877 0.00928728 0.000512241 0.024838 0.039855 0.0275302 
0.0127296 0.0120706 -0.0146005 -0.00641613 0.0145658 0.0098585 0.0118998 0.0493804 -0.0147156 
-0.0270214 0.024177 -0.00482589 0.00864071 0.0159336 0.0221028 -0.0132818 0.0200199 -0.00526903 
-0.00232112 -0.0055861 -0.00897911 0.00269074 0.014967 0.0155832 -0.0105687 -0.00378989 0.0211963 
-0.00145771 -0.0216757 -0.0112889 0.00153772 -0.0244064 -0.0261452 -0.0315208 -0.073606 0.0171667 
-0.0649296 0.0283362 0.012414 0.00401295 -0.00540656 0.0130965 -0.0112628 0.003086 -0.00702019 
0.00244172 -0.00495091 -0.010175 -0.0285887 -0.0192515 0.0206097 0.017102 0.0204903 -0.020186 
-0.0231907 -0.0362205 -0.00832376 -0.00967982 0.0149381 0.0038242 -0.00413126 -0.00444329 0.0210102 
0.0193708 0.029265 0.000127194 -0.00785932 0.00304018 -0.00271225 0.00848877 0.013492 0.0103222 
-0.000264228 -0.00196272 -0.023038 -0.0100341 -0.0197076 -0.0161994 -0.00382153 0.0523222 -0.123249 
-0.0422877 -0.0583889 -0.0052904 -0.00200218 -0.00264128 -0.0217387 -0.0114528 -0.0219913 -0.027004 
0.00972152 0.0102414 0.0101282 -0.00243765 -0.00548129 -0.00542722 0.0156641 0.000605 -0.00525781 
-0.0301517 -0.0191046 -0.0134532 -0.0226837 0.014348 0.013683 0.00233732 5.42932e-05 4.7572e-07 
-0.00719874 0.000332052 0.0014758 -0.00266122 -0.00161479 0.00530139 0.0079972 -0.00676073 -0.00131591 
-0.00686739 -0.00215269 0.00464308 0.00114154 -0.0296736 -0.0254391 -0.00121259 -0.0913404 -0.0848372 
-0.0277645 -0.103835 0.0223532 0.0301961 0.0094222 0.0132957 0.0130777 -0.00963419 -0.0447474 
-0.0694408 -0.0844612 -0.0129752 0.010132 0.0268357 -0.00338399 0.00241525 0.0123712 -0.00930472 
0.0162167 -0.00267166 0.00534996 0.000782253 0.00954616 0.00919807 0.00139896 0.00720635 -0.00265135 
0.00812541 0.0163736 0.011401 0.000405916 -0.00194472 -0.00342348 -0.000227053 0.00424295 -0.00330677 
-0.0639075 0.0186279 -0.023864 -0.0189526 -0.0466768 -0.0238975 0.00245603 0.0108719 0.0309764 
0.010037 0.011981 0.00598956 0.0207791 0.0294622 -0.00186115 -0.00725827 0.000458912 0.000875323 
0.00490825 -0.00548413 0.00475138 -0.0264257 -0.0330579 0.0076898 -0.0376764 0.000372676 0.000560594 
0.00174296 0.00102754 -0.00811273 -0.00247654 -0.000556556 0.0123506 0.00322776 0.0215764 0.0102085 
0.00276628 -0.00360521 -0.00446726 -0.00527914 0.0121457 -0.0180823 0.0102082 -0.00348893 0.0137969 
0.00552129 -0.00971303 0.0251162 -0.0348616 -0.0125685 0.0205412 0.0138445 -0.0371961 -0.00685821 
-0.019228 -0.0112706 0.00252659 -0.00312717 0.00782123 -0.0814759 0.053275 0.20697 -0.00160379 
-0.0057691 -0.0166398 -0.00226631 0.00794741 0.011483 0.000228592 -0.00402568 0.00860627 0.010655 
0.0140681 0.00953892 0.00030012 -0.00621596 -0.00278454 0.0111096 0.00497885 0.014393 -0.0118352 
0.0157012 0.0179724 0.033762 0.00566996 0.0149976 -0.0246395 0.0113521 0.0106522 0.00214774 
0.00518551 -0.00374159 -0.00309331 0.00131115 0.00952725 -0.0177022 -0.0096405 -0.0159941 -0.0077315 
-0.00438673 -0.00479865 0.00468875 -0.000936751 -0.00214947 0.00430386 0.0104103 0.0116347 -0.0139392 
-0.0331636 -0.0736798 0.00234839 -0.0086554 0.000656534 0.00358382 -0.00991304 -0.0101431 -0.00440829 
-0.000292124 -0.0058264 0.0021737 -0.00220335 0.000871874 -0.0114887 0.0134104 0.0227409 -0.00699812 
0.0061231 -0.00487756 0.00773313 -0.0156668 -0.0118232 0.0403877 -0.00541378 -0.00858441 -0.00390707 
0.0220227 -0.061641 -0.00592544 0.006686 -0.0315314 0.00765975 0.0206532 -0.0111007 -0.0639144 
-0.0546017 -0.0074586 -0.0182212 -0.0378419 0.0214751 -0.0388312 0.00323929 -0.00707508 0.0058757 
4.76533e-05 0.00341997 0.0162607 0.00919952 -0.0151381 0.0256855 -0.00637427 -0.00811423 0.00526505 
-0.0764084 -0.0260824 -0.00517783 0.0095208 0.00596945 -0.00215851 0.0101374 -0.00464596 -0.00694217 
-0.0191311 0.0258204 0.0143522 -0.0320478 -0.00262026 0.0223087 0.00373657 -0.00457241 -0.0133939 
0.000444245 -0.0280579 0.00992638 0.0150358 0.00242439 0.00859187 0.00845926 0.0305311 -0.0127588 
0.00747369 0.00560787 -0.00278262 0.00613809 0.0100514 -0.022866 -0.0340576 0.000934784 0.0151372 
0.0165879 0.0154009 -0.0132486 -0.00571227 -0.00663303 0.00560925 0.0110126 0.00471356 -0.0117743 
-0.176193 -0.0120289 0.00251316 0.00710187 -0.0178268 0.0131718 -0.0034075 -0.0164298 -0.0196811 
0.0042488 -0.0145129 -0.0214072 -0.0137633 -0.00505563 -0.00470626 -0.00481978 -0.00563157 -0.000505132 
-0.0110756 -0.0193093 0.00985804 -0.00277579 0.0297745 -0.00189166 0.00209488 0.0214502 0.0103379 
0.00465815 -0.00395686 0.00807589 -0.0105697 -0.00928716 -0.0170052 -0.0129463 -0.00904427 -0.0117082 
0.0176861 -0.00363884 0.0324647 -0.010241 -0.00125619 -0.0102384 0.00254572 -0.0105681 0.000834484 
-0.0024198 0.00208989 -0.00792029 -0.0123013 -0.0141182 -0.017283 -0.0158936 0.00296991 -0.000909864 
-0.00296529 0.00306151 -0.00384466 0.00100622 -0.00239034 0.00617196 -0.00640813 0.0039526 -0.0099515 
0.0063724 0.0115816 0.00880556 -0.000750935 0.0114021 -0.00559535 -0.00420355 -0.0156204 -0.00262611 
0.0134678 -0.0318727 0.0354561 0.00123933 -0.00367261 -0.00936113 -0.00589646 -0.00139145 -0.00248703 
-0.0239922 0.0333851 -0.0100574 -0.00449364 0.0160658 -0.0108475 0.0318041 0.0259787 -0.0203184 
0.0385568 0.0358867 0.0331439 -0.000995994 -0.0350022 0.0142953 0.00976703 0.00375743 0.00563198 
0.0097689 0.0250077 0.0275772 0.0196782 -0.00552844 -0.00592909 0.00414319 -0.0488352 0.000923992 
-0.0554047 0.0126864 0.0211326 0.00743237 0.00380317 0.00655028 0.00777862 0.00360682 0.00586922 
0.0064724 0.00612478 -0.00256442 -0.00152478 0.0039237 -0.0455857 -0.0386045 -0.205974 -0.0123169 
0.0212403 0.0250376 0.0326121 -0.00100536 0.0621508 0.02359 0.00707509 -0.00360062 0.0118588 
-0.00838477 -0.000760302 -0.0229884 -0.0117441 -0.0141563 -8.61608e-05 -0.0992071 -0.0855985 0.000721794 
-0.000541056 0.0214766 0.0322989 0.0161485 0.0191176 0.0230954 0.0234204 0.0189849 0.0353062 
0.000735848 -0.000559055 0.0155772 0.00730747 -0.0140827 -0.0154256 -0.00560608 0.0119896 0.000590159 
0.00846014 -0.018932 0.010816 0.012391 0.0131092 -0.0228694 -0.0204684 -0.0450847 -0.00897896 
-8.22443e-05 -0.00410349 -0.00374988 -0.00216714 -0.00966069 -0.0155736 -0.0240432 -0.0159092 0.0194455 
-0.018295 -0.00795199 0.00942353 0.00664615 -0.00968815 -0.00574564 0.00997973 0.0236975 0.0116464 
-0.00898062 -0.0154937 -0.0181318 -0.0232009 -0.00449138 -0.0226484 -0.00643791 -0.0199556 -0.0085119 
0.000482929 -0.0126843 0.0121966 -0.00782819 -0.00581942 -0.0037516 0.00817335 -0.0198572 0.0130199 
0.00579977 0.00636853 -0.00135324 0.00258225 0.00753653 -0.044348 -0.0245379 0.0361729 0.00418598 
-0.0100686 -0.00977262 0.00203642 -0.0160294 0.000633633 0.00447276 0.00175897 -0.00047763 0.00234984 
0.00904937 -0.0592138 -0.0099321 -0.0889069 -0.0556534 -0.00339351 0.0418672 -0.0473281 0.00777325 
-0.0403407 -0.000413633 -0.00206914 0.00936355 0.00170739 0.0194511 0.0181167 -0.00595704 -0.0395802 
-0.0277523 -0.0272236 -0.0590668 -0.0284388 0.0449036 0.0464218 0.126268 0.0246447 -0.0238291 
-0.0335376 0.017561 -0.00731615 0.0012665 0.0257118 -0.00208023 -0.00215956 -0.0194056 -0.0478388 
-0.142557 -0.12434 -0.0560462 -0.106475 0.000742802 0.023599 -0.0112812 -0.0122373 -0.00905461 
-0.0017967 -0.00270367 -0.00139566 -0.0139642 -0.0233685 -0.0145413 -0.0401475 -0.0193902 -0.0312267 
-0.0286759 0.0148286 -0.0803051 -0.0435182 -0.176187 -0.114042 -0.0258323 -0.038169 -0.0723025 
0.00907975 0.00354325 0.0148389 -0.0106792 -0.00162535 0.0150347 -0.00236591 -0.0200703 0.0030652 
0.00692943 0.01027 0.0096377 0.0140788 -0.00725706 -0.00721948 0.0150085 -0.0100308 0.0248813 
0.000823625 0.00209426 -0.0117984 -0.0312968 0.0258826 -0.0423168 -0.0154025 0.0233817 -0.00115548 
-0.00793628 -0.00503452 0.000733007 0.00649898 -0.00628715 -0.00517582 0.00375285 -0.00486602 0.00339753 
-0.00548097 -0.00190467 -0.0177144 9.04776e-05 -0.0236268 0.0202748 0.0141452 0.00927635 0.0126618 
0.0146271 0.0151176 0.0164325 0.00663325 0.00955781 0.0209222 0.0168477 0.0193317 0.000489794 
0.0113909 0.0104553 0.00236559 0.0140246 0.00140131 0.0105779 0.01251 0.00781899 0.00108216 
-0.0123332 0.050683 -0.0601963 -0.0043609 -0.0162284 0.00815957 -0.00121769 -0.00300465 0.000676205 
-0.00103751 -0.00567781 -0.00409097 -0.00444513 0.00395089 -0.00159531 -4.58579e-05 -0.000774353 -0.00515836 
-0.0165816 0.0086358 0.0099634 -0.00415895 -0.00069504 0.00432002 0.00477239 -0.000113196 0.00636713 
-0.0278142 -0.020585 -0.00507508 0.0131994 0.00833091 0.00702166 0.024347 -0.00621684 -0.0158314 
0.017836 -0.0237049 0.0220384 0.0406178 -0.024419 0.0300672 -0.0281784 -0.0106223 -0.00943386 
-0.0130087 -0.0107293 0.00326528 0.00771601 -0.00165695 0.00179283 0.00292777 0.00125789 0.00790151 
0.00412479 0.0180423 0.00168594 0.00196649 0.0227775 0.0201683 0.0170142 -0.00752932 0.00993889 
-0.00325289 0.0107749 0.00869628 -0.00289805 0.0033795 0.00777139 0.0199579 -0.00283779 -0.00420252 
-0.00512597 -0.044152 -0.039567 -0.0174388 -0.036045 0.00550983 -0.0193705 0.0103778 0.0155797 
0.00657792 0.00377562 -0.0024169 0.00169325 0.00501913 0.0258575 0.004723 -0.0140373 -0.0124287 
0.0223117 0.0515153 -0.0907924 -0.00674714 -0.00500493 -0.00613345 -0.00801184 -0.0139662 0.00349694 
0.0117078 0.00197518 -0.00637479 -0.00640664 0.00605786 0.0336829 -0.0474573 -0.0308492 -0.021035 
-0.00936053 0.000433212 0.0157403 -0.00490063 4.14306e-05 0.00240608 0.00425247 -0.00426899 -0.00250623 
0.00244345 0.00866105 0.0253858 0.00406265 -0.00105876 0.00154255 -0.00515591 0.00614501 0.00182029 
0.0302578 0.0148555 0.0223049 -0.00606758 -0.0113229 0.0364237 -0.0165877 -0.0666261 -0.0270118 
-0.0187511 -0.0403716 0.0235942 -0.0582666 0.0480346 -0.0246272 -0.0246469 0.0359727 0.13324 
-0.019779 -0.0238266 -0.00336729 -0.00481542 -0.000236009 -0.0117935 -0.00366747 -0.00132651 0.0388755 
-0.0636263 -0.0590833 -0.0349948 0.0623451 0.104033 -0.0759116 -0.0601272 0.00594547 0.00592406 
-0.0109481 -0.0100831 0.00843338 0.0100399 -0.000637598 -0.00111219 -0.00296527 -0.00494844 -0.0262505 
-0.00616703 -0.0307671 0.0185926 0.011813 0.0252954 0.00772383 -0.0125662 0.0050142 -0.00448682 
0.0188565 -0.00782707 -0.0133985 -0.00112447 -0.00510564 -0.00913635 0.0629614 0.0161835 0.00313258 
0.0208794 0.0194084 -0.0143836 0.0403492 -0.0599665 0.0395572 0.0390265 -0.00291281 -0.00169482 
-0.0114671 0.057562 -0.00765177 -0.017567 -0.0155762 0.0015678 0.000844273 0.00575625 -0.00424426 
0.00710786 -0.0105289 0.0157823 -0.0149886 0.00778823 -0.00591814 0.0223848 0.0366804 -0.0318758 
-0.0384399 -0.0520204 0.0177148 0.0290117 0.0218401 -0.00515816 0.0025847 -0.00337854 0.0633425 
0.028437 0.01978 -0.0490965 -0.011205 -0.0226575 0.00482512 0.00910887 -0.00607471 0.00367224 
-0.00641976 -0.00327082 0.0285075 -0.0269215 0.0480956 0.00904181 -0.0129655 0.0427304 0.0187467 
-0.0136648 0.0261037 -0.00847692 0.00667639 -0.0315714 -0.0113833 0.0126319 -0.0128089 0.0186657 
0.00112425 0.016587 0.0318783 0.0121359 -0.00933795 -0.0138288 -0.0131569 0.0186668 0.0415565 
-0.00790782 -0.00240514 0.00462096 0.00865121 0.0143537 0.0107147 0.00344509 0.00839115 0.0074298 
0.00799856 0.0122304 0.00832389 0.00755334 -0.00981142 -0.00419823 0.00263844 -0.00752119 -0.000503922 
0.000312884 -0.000414034 -0.00551449 0.0200211 0.0151787 0.0157735 0.0104118 0.0319318 -0.00153379 
0.00912101 0.0048466 0.00206898 0.00161578 0.00244555 -0.000723263 0.0156297 0.0140337 0.0425805 
0.0444561 -0.0306566 0.0153147 -0.0320711 -0.00449924 0.0128901 -0.00651539 0.00609968 -0.00621974 
-0.0122295 0.0046179 0.00132938 -0.00784057 -0.00399144 -0.0156265 -0.0303516 -0.0224424 0.0216774 
0.0395653 0.0238808 0.0164103 -0.0067718 -0.00262734 -0.000118177 0.00745005 2.04609e-07 0.0511356 
0.0561342 0.0261381 0.00835142 0.00478929 -0.00567031 -0.0270951 -0.0196015 0.000513745 0.0154227 
-0.0317073 0.0179904 -0.01589 0.0040873 -0.001418 0.0122406 -0.00652049 -0.0475213 -0.0193875 
-0.00935542 -0.00711445 0.00874589 -0.0057723 -0.000594087 0.00953301 0.00945032 -0.0296843 -0.0547647 
0.0182235 0.00223258 -0.00875943 0.0207119 -0.0451709 -0.00848077 -0.000773054 -0.00239076 -0.00179746 
-0.0106347 -0.0207373 -0.0049448 0.0178945 0.0310821 0.0225915 0.0142511 0.0103863 0.00987457 
-0.0389731 -0.0425935 -0.0297057 -0.139203 -0.0573457 -0.0744974 -0.0195863 0.00195484 -0.00118639 
0.0022111 0.0149731 0.00442636 0.000821482 -0.00238268 0.00650402 0.00518055 0.0102516 -0.0201953 
-0.00428878 0.0134767 0.0220716 0.0114845 -0.00344623 0.00399752 0.00225132 0.0143385 -0.0246777 
-0.0159235 -0.0793337 0.00365571 0.00544965 -0.00456598 -0.00351198 -0.0114506 -0.00264317 0.00153515 
-0.00686936 0.000580656 -0.010517 -0.0101384 0.00852954 -0.000177932 0.00298491 0.00294974 0.0183969 
0.0108559 0.0239517 0.00458137 0.00850648 0.00558084 0.00284068 -0.0231934 -0.00523425 -0.00037051 