# vtk DataFile Version 4.0
vtk output
ASCII
DATASET POLYDATA
POINTS 20482 float
25.4355 -22.7293 60.9172 23.3492 -22.2964 62.1027 23.8631 -22.7549 64.039 
25.9343 -23.2134 64.8986 37.3585 37.1983 44.6934 37.9625 38.2291 44.0022 
36.7388 38.9471 44.5305 35.7965 37.3256 45.0912 8.43287 -54.5874 41.1022 
9.00983 -54.0524 39.7266 8.71381 -55.0779 40.4746 30.8721 -51.6151 38.7831 
30.0794 -52.2135 38.3717 30.7705 -50.7823 37.4256 62.2632 -9.10844 34.1427 
62.1751 -11.1656 33.575 62.5782 -9.43884 32.962 12.7842 28.8922 4.3758 
13.0224 26.0687 4.55326 12.6515 27.4529 4.55979 9.72321 -36.4563 5.89713 
10.3343 -35.7671 5.3325 9.73931 -36.9214 4.94392 2.76476 -42.2924 61.3763 
3.16801 -41.8022 59.7268 2.94219 -43.4789 60.1308 29.2723 -40.3228 65.768 
28.6485 -41.6093 65.7314 29.601 -41.9085 65.3279 38.5204 -18.9443 46.881 
38.0093 -19.2637 45.3582 41.5143 -18.5801 46.3809 30.3026 -40.8233 65.4863 
29.7243 -39.0801 65.166 28.1858 9.07972 58.9708 30.0198 9.64582 60.582 
29.3785 10.8076 59.6013 26.5287 61.6411 19.897 27.6732 61.5223 18.2967 
26.0233 62.0892 18.2892 13.728 46.3764 51.4911 12.1222 49.641 52.3671 
12.1549 48.224 53.2217 24.7971 62.078 19.6275 25.155 60.8145 21.0627 
4.61842 42.4151 16.5372 3.31597 41.2615 15.4878 2.57723 41.9217 16.8788 
5.53643 41.4056 15.6839 11.6185 -20.5027 45.0738 11.8936 -23.1663 43.7089 
13.1211 -24.7576 43.1304 6.33998 -50.9344 19.2199 5.29813 -51.4503 17.8537 
6.23705 -51.7959 19.2826 5.84318 -50.5137 17.9898 29.8755 -71.4731 20.2498 
30.0819 -72.2455 18.8072 30.0162 -73.4238 22.103 42.2415 -31.9784 37.5914 
43.4794 -31.73 37.2664 44.7443 -30.1972 37.4748 45.5564 -58.9867 30.7705 
46.1677 -58.1202 29.7048 46.8824 -59.4856 32.0588 51.9067 -41.8212 25.4171 
53.5135 -42.362 23.6134 50.0801 -41.2063 24.769 28.0818 23.2627 10.1755 
28.5746 22.378 9.58607 27.8375 23.1517 8.82321 48.2704 14.6164 -7.85156 
47.5024 16.0216 -8.90215 48.3348 15.7248 -7.44743 48.1956 14.709 -8.69519 
11.2259 -15.7792 -4.59378 13.5833 -17.3836 -1.70512 11.7603 -16.6792 -3.09833 
11.2735 -70.2645 0.615975 10.7987 -71.5413 -1.29882 12.0194 -72.0264 -1.08848 
44.7671 -63.0902 4.28761 44.3858 -61.8445 3.97644 44.2057 -61.3945 4.8099 
64.0917 -14.1595 11.9811 64.0965 -13.1829 11.0966 63.2756 -13.4225 12.6831 
60.5789 -29.5724 -7.0477 60.3927 -25.411 -7.7417 61.5439 -25.9678 -7.01995 
22.1099 -13.8173 68.8374 22.6595 -12.424 68.8935 21.8406 -12.8108 69.9226 
24.5472 -11.0075 51.9154 24.1724 -7.72376 54.582 23.4391 -9.78697 53.2528 
13.8481 -31.9582 72.6808 13.1658 -31.0938 72.3073 12.9263 -32.8104 73.0257 
21.2966 -14.3458 69.4879 20.8567 -15.506 68.6923 13.5947 -33.9769 72.8403 
14.7998 -32.7983 72.6083 37.7495 -18.0004 64.2872 39.1542 -19.4407 64.15 
38.9101 -17.8945 63.7049 24.9832 -10.9405 51.8988 37.099 -16.6911 63.3718 
35.7799 -17.1139 63.3983 31.3681 50.394 32.6024 32.6024 51.6636 32.2885 
30.9206 50.728 30.2017 37.4724 33.2338 31.7037 39.3125 34.7443 30.3008 
37.8001 36.0258 29.7659 23.4416 39.6854 42.3011 23.2891 41.1168 42.2239 
23.2366 41.0506 44.1488 29.8718 48.9205 32.332 4.49637 34.8702 37.2532 
3.47812 33.8385 36.2401 3.61034 32.908 37.2723 4.23159 35.9162 36.284 
9.19091 -3.13249 48.9601 8.24349 -5.67968 48.6003 8.9373 -5.35968 48.9129 
9.42637 -62.8348 48.6133 8.16329 -64.2808 47.5879 10.3738 -63.3564 49.5037 
5.09187 -69.3469 31.9493 5.3086 -70.7624 32.1706 5.77661 -67.756 34.2492 
38.8791 -57.6617 38.0695 40.8097 -58.2226 39.6782 37.5184 -55.1422 36.7359 
57.7124 -27.5053 23.1476 56.0193 -27.6701 22.5806 56.1231 -26.1423 22.5259 
38.2258 9.21235 14.6335 38.9836 9.53311 13.4265 36.9562 12.0443 15.6655 
9.75955 3.88196 1.1522 11.5409 0.890672 1.14646 9.21331 2.96272 1.03601 
21.1562 3.58595 0.0733106 20.9057 2.11978 -0.758322 20.2839 3.11921 1.00295 
21.6195 2.77548 -1.36898 21.9229 -53.8 1.26248 19.7731 -54.3486 1.29113 
20.5226 -55.1513 1.17181 32.8846 -75.0167 -4.43534 34.267 -76.2551 -5.28046 
34.1929 -74.9812 -3.92307 21.4805 -77.9692 -22.5808 23.561 -77.5087 -22.5412 
23.4704 -78.7567 -23.1128 22.0878 -76.9391 -21.3817 10.1325 24.9974 66.7257 
10.3707 26.338 66.3479 8.92317 25.2291 67.2185 21.2092 25.3401 52.0355 
21.5462 26.749 50.8298 21.0713 27.0248 51.8858 13.8307 -49.5368 53.1987 
15.3665 -47.7549 47.7514 14.1096 -49.6595 51.708 7.09191 -10.83 58.4309 
7.22093 -11.2938 55.7909 6.79675 -12.1832 56.9826 7.66082 -9.54086 55.1366 
12.5025 -57.1979 64.1246 12.6261 -58.6767 62.7157 13.8385 -57.2283 64.3735 
11.4911 -58.459 62.6306 44.2601 -12.9655 34.7649 45.0633 -13.8867 34.7874 
45.5774 -12.3864 34.0185 47.4881 -21.7427 49.3938 48.913 -21.3817 49.285 
46.9414 -22.3137 46.7936 49.3086 -21.2024 50.6564 33.7001 -32.2533 48.1462 
34.9898 -31.2364 47.692 34.3099 -31.3208 48.1038 38.3754 6.44699 49.2558 
37.1628 6.83947 47.5499 38.3038 8.68505 48.4627 47.4247 -4.71818 44.9616 
46.3221 -4.9352 44.8813 48.0321 -5.27108 46.2064 45.5718 -11.7689 34.0467 
44.2063 -12.4231 34.9928 39.993 9.85818 18.7792 40.8689 8.10731 18.4192 
39.0255 7.56743 20.1617 56.1151 7.51387 18.9378 56.739 5.76375 20.0684 
56.1145 6.06692 17.896 58.9456 2.31443 33.912 59.061 1.35622 32.2136 
58.9203 3.33053 33.2243 58.8815 0.397428 32.8156 14.7083 48.6025 3.21301 
15.7385 46.3223 3.06165 13.7624 47.3707 1.6701 30.0518 37.2668 13.624 
29.1805 37.0458 13.0844 28.5634 37.5797 13.5732 31.2072 36.5405 12.5336 
32.0007 29.0521 20.8805 37.2591 28.4793 15.998 35.1615 29.0305 18.9922 
32.4634 28.719 19.1626 30.6982 28.8935 21.1648 6.39659 34.1348 49.2399 
6.41639 34.2192 48.1881 6.69982 32.7531 48.6039 7.97512 48.4942 34.3195 
8.83489 46.695 34.4519 8.43148 46.6761 35.5144 8.33845 47.8785 33.458 
20.4304 60.8651 33.9631 18.6627 60.806 34.19 20.5177 59.6582 36.008 
4.22269 57.2544 16.943 5.29155 56.5735 18.0453 4.0158 58.8959 18.182 
12.4928 48.9668 1.50404 13.7575 49.9794 2.95592 2.56699 -11.3132 12.2578 
3.90501 -14.4033 10.058 2.92358 -14.0667 13.2288 3.49729 -12.0311 9.87829 
-0.334473 15.6693 30.0772 -0.453074 7.51864 26.0102 -0.371881 7.86556 28.7167 
2.93213 11.931 11.9062 2.46916 8.17167 11.0597 2.71179 12.1007 13.0752 
2.54274 36.7441 4.21388 2.16473 33.666 2.94828 3.40861 34.2099 5.52886 
1.87832 36.0909 2.16399 3.29452 -37.7575 35.3528 4.00048 -38.7634 35.3413 
3.55701 -37.7629 36.489 2.49346 -13.1648 39.8807 2.35683 -17.8122 38.4005 
2.1627 -15.2044 39.6974 3.57784 -36.115 27.1188 3.94697 -33.8541 29.1693 
2.75729 -31.384 28.845 3.4878 -71.0073 13.425 3.70568 -72.3056 11.9873 
3.5089 -72.7008 13.0982 3.18405 -70.6555 12.2317 12.8947 -63.4714 20.279 
15.704 -62.0636 19.9989 13.8455 -63.2713 21.3864 19.1403 -57.035 9.53876 
19.1631 -57.6852 6.02914 18.9977 -57.6254 9.9222 5.19655 -44.9768 7.9098 
5.65581 -44.17 7.30588 6.2083 -46.1519 6.09449 30.1929 -61.4341 49.199 
29.5409 -60.1584 46.3636 30.4981 -60.0267 47.052 12.3348 -75.3079 39.5834 
13.7319 -74.6482 40.7193 12.2703 -74.9813 40.951 24.1992 -76.6864 18.3256 
24.3917 -74.5468 19.1636 23.9006 -76.0851 20.0167 24.6444 -74.7241 17.729 
9.40895 -87.2209 8.37156 10.2353 -88.2197 8.27574 9.74533 -88.3678 10.0511 
43.8846 -60.9432 15.2047 44.2657 -59.0871 13.6075 44.8327 -59.9874 14.5035 
42.6754 -74.2919 11.315 43.0241 -73.2734 12.5208 42.6757 -74.6732 13.4094 
53.083 -51.5923 27.5756 54.3322 -51.0813 25.8733 52.9125 -50.1503 28.8808 
53.4886 -51.9998 26.3225 35.9754 -13.7792 23.1149 36.9243 -13.6819 22.0675 
35.5861 -12.0992 22.4639 37.106 -26.9648 18.8903 37.5201 -26.1436 18.7618 
35.6599 -25.8458 19.2209 38.9643 -26.8752 17.5944 41.3421 -30.6517 19.7639 
40.3907 -30.6299 19.7724 40.8533 -29.1222 20.0844 22.2575 26.3336 0.397546 
21.743 24.8182 -0.963511 21.3197 25.0755 -0.633807 41.0366 7.62577 -3.17155 
40.2284 8.5293 -3.20501 40.2721 6.95687 -2.69971 31.1313 20.4728 -18.4891 
29.0701 22.2755 -18.3953 30.8601 22.8545 -18.1499 29.5568 20.4032 -19.1024 
31.3681 18.8794 -18.9064 49.2009 4.60671 -18.5811 48.9859 5.47828 -20.3657 
47.4361 6.49851 -18.3608 50.1122 4.07921 -19.7824 15.2996 -27.7418 5.31279 
17.7217 -28.3046 5.54756 15.2622 -28.494 6.19653 31.1742 -28.5325 -1.00737 
29.9462 -28.5672 -0.80801 30.9617 -29.0847 -0.271078 30.0584 -27.6505 -1.16975 
32.383 -11.9154 -2.32572 33.0056 -13.8956 -1.81348 31.0877 -12.319 -1.4839 
18.0154 -12.4396 -9.72165 18.8963 -12.7178 -8.32739 19.4329 -11.5805 -7.86781 
17.867 -13.6369 -10.3056 17.9545 -13.3189 -11.521 32.7575 0.18651 -20.2019 
33.851 -1.5315 -19.8089 31.9425 -1.46518 -19.7684 34.2195 0.450472 -19.5629 
10.9703 -72.14 -19.0551 11.6152 -73.4856 -19.2538 9.13428 -74.6611 -19.5839 
12.6489 -71.972 -19.0345 12.7244 -56.1784 -4.24722 11.5254 -57.2464 -4.73763 
11.0209 -57.3519 -3.81539 27.5642 -49.5091 -7.6926 27.0712 -53.3044 -8.48044 
28.1403 -49.3314 -6.80044 26.6509 -52.4558 -9.20697 25.9965 -50.9726 -9.5991 
29.8219 -21.342 -12.326 29.0129 -21.7991 -13.1693 29.0118 -22.7724 -11.6925 
30.1448 -20.4238 -13.7767 53.1277 -47.1482 -4.13545 53.3386 -47.0251 -3.83107 
52.8701 -49.2849 -3.16744 41.2568 -36.526 -15.9971 41.1918 -34.4987 -15.2473 
41.7334 -36.7838 -14.9734 49.4155 -18.3914 0.118523 49.4848 -16.6846 0.0805857 
48.7116 -19.3493 0.823616 63.2873 -3.53036 -4.58184 62.7523 -2.49724 -3.11742 
63.2062 -4.26615 -2.94379 62.9731 -1.73971 -4.7742 62.6487 -1.59312 -6.50014 
20.5199 -19.2977 62.0812 21.3422 -18.6553 60.6378 20.612 -18.3892 62.4293 
19.9642 -25.5822 68.7155 19.5127 -25.138 67.7078 18.3513 -27.2065 69.6868 
26.9827 -31.0458 68.7317 25.8427 -31.6675 68.0774 26.5705 -32.1362 66.7773 
19.4613 -27.413 70.3532 20.9232 -25.787 69.4993 28.1684 -31.3421 68.0228 
28.7517 -29.7476 69.2989 30.6548 -22.2389 63.4072 29.504 -20.7442 60.0486 
28.7412 -21.9022 60.7573 31.3823 -21.5394 63.4412 43.4446 30.7153 43.3211 
44.3893 29.341 43.2529 43.9824 30.774 42.1911 35.6358 46.668 40.4605 
36.789 46.7803 39.4535 35.2267 47.558 39.6351 35.5828 34.5582 34.4007 
35.4095 35.5352 33.7534 36.9432 37.3953 35.9113 27.7898 37.0906 42.2279 
27.6749 38.8693 41.0689 26.9643 37.9207 41.1064 34.0121 46.7478 40.4888 
34.5841 45.4353 41.755 3.80577 12.7737 45.3036 3.47196 14.5697 44.3495 
[...]
POINT_DATA 20482
SCALARS Gauss_Curvature double
LOOKUP_TABLE default
0.0114307 -0.0107451 -0.00211091 0.00238073 -0.00127457 -0.00434994 0.00860336 -0.00248954 0.00321128 
-0.0419881 -0.0571282 0.000134 0.000566036 0.0061618 0.0135467 0.000287177 0.00226819 0.0858517 
0.0978755 -0.0512482 -0.0116422 -0.00773825 -0.00487143 0.00430502 0.00696652 0.00471168 0.0125703 
-0.00332145 -0.000440667 0.0058358 0.00189272 -0.00396248 -0.00397452 0.00127277 -0.00141302 -0.0051801 
-0.00326798 0.0167482 0.00751323 0.0127816 0.00689751 -0.00222152 -0.00329581 0.0191771 0.019315 
0.00534713 0.0305129 0.02671 0.00168825 -0.0183906 0.00832649 0.0204465 -0.0509286 -0.0253139 
0.0172235 0.0714103 0.00142988 -5.30522e-05 -0.00205599 0.0131873 0.00964115 -0.00403192 -1.50028e-05 
-0.000128347 -0.0114195 0.013862 0.017032 0.00308409 -0.0173655 0.00736756 0.0176005 -0.023776 
-0.0846804 -0.00774551 -0.042925 0.000500198 -0.0034311 -0.00139575 -0.0330814 -0.0122231 0.00858845 
-0.0504017 -0.0945415 -0.0756956 -0.00109421 -0.00417859 -0.0116 -0.00152302 -0.00231906 0.00289131 
0.0270652 0.0233081 0.0259553 0.00174423 -0.0350217 0.0427468 0.0102949 -0.00916645 0.0143817 
0.026953 0.00664504 0.0132119 0.00399247 0.0212199 0.0122071 0.0163145 -0.012776 0.0176382 
0.0129568 0.00243524 0.00529451 -0.00196643 0.00662421 -0.000873841 0.00102908 0.0222596 0.0109949 
0.00444773 -0.00107757 0.0138898 0.00364256 0.00997724 0.0103779 -0.041916 0.0139429 0.0223137 
-0.025924 0.0310877 -0.00284166 -0.00797678 -0.0147174 0.000113081 -0.0099046 0.00412382 0.00259461 
0.016558 0.00715332 0.0106473 -0.00403268 -0.00780663 -0.00218755 -0.012992 -0.00616943 -0.00674748 
0.00412675 0.0779553 -0.0481275 -0.000271978 0.00355549 -0.000308888 0.000294899 0.0213395 0.00600698 
-0.000434077 -0.00716248 -0.00316355 0.00977111 -0.013821 0.00408869 0.00381645 0.00643754 0.0021567 
0.00613123 0.00264463 -0.0106505 0.00105784 -0.00324907 0.00594347 -0.00986371 -0.00419143 -0.00852596 
0.00894469 0.016397 0.0154377 0.0121886 -0.010644 -0.0168235 -0.00158555 0.000577699 -0.00123062 
-0.00165454 0.0126238 -0.180971 -0.152096 -0.491747 -0.00210323 -0.00371975 -0.0018489 0.019491 
0.0284053 0.0178328 -0.0133375 0.0222609 0.000339523 -0.000683347 -0.000749684 0.0233162 0.0268537 
0.0326214 0.00626128 0.0100649 0.00774721 0.0061382 -0.00131165 0.000510128 -8.82154e-05 0.024633 
0.00690674 0.0581664 -0.00616364 -0.010574 -0.00845412 0.0059669 -0.00199315 -0.0267037 0.00619721 
0.00912948 0.025446 -0.0158436 -0.00988685 -0.00964605 -0.00948555 -0.0125921 -0.00500646 0.00352823 
0.00378754 -0.000511627 0.00796271 -0.000154192 0.00168465 0.0033089 -0.00221039 0.00336197 -0.00326894 
-6.93724e-05 3.66448e-05 8.02969e-05 0.000548002 -0.000243056 0.00231648 -0.00173015 -0.000227009 -0.00154985 
-0.00115759 -0.0226856 -0.0464557 -0.0358854 -0.00287632 -0.00507535 0.0056708 0.00421563 0.00841245 
-0.00532852 -0.0511055 -0.0252706 -0.0327387 -0.0185582 -0.00469645 -0.0154977 0.00840253 -0.0537321 
-0.013347 -0.116679 -0.00711092 0.00538877 -0.00162264 -0.00707471 0.00215119 0.00543652 0.00789731 
0.00672114 0.00623367 0.00231553 0.000565001 0.00462735 0.000525814 0.006084 0.010535 0.0156146 
-0.00554462 0.000382242 -0.00386309 0.0236773 0.0165147 0.0263633 -0.0229503 -0.0189281 0.00912237 
-0.0693205 -0.063218 -0.00141114 -0.0124743 -0.00471529 -0.00105415 -0.00147441 -0.0025126 -0.0142223 
-0.0114546 -0.00154996 -0.00794084 -0.0352077 -0.055629 0.0565856 0.020105 -0.00338959 -0.0138051 
-0.0154454 -0.00779117 -0.020292 -0.00729637 0.00266857 0.00184922 -0.00546332 0.022096 0.0126923 
0.00178039 0.0168743 0.0550456 -0.00280592 -0.0569917 0.00808147 0.00134167 -0.00214289 -0.00345641 
-0.0217666 -0.00765853 -0.00997345 0.00558214 0.00399423 0.00136499 0.0127908 0.00408894 -0.00187785 
0.00904204 -0.00195425 0.0127334 0.014728 0.0643453 -0.00236079 0.0445655 -0.00554195 -0.0160058 
-0.0104364 -0.0142045 -0.0074125 -0.000398534 0.0156863 0.00387329 0.0077617 0.0627106 0.0398286 
-0.0210018 0.00996722 -0.00846774 0.00191269 0.0305635 -0.0342549 0.0768801 -0.000681108 -0.000346108 
0.000823424 0.00866163 0.00352469 -0.0385977 -0.0109628 -0.0284169 0.00295259 0.00157068 0.000938268 
0.00223296 -0.00470006 0.00127134 -0.00613737 0.00950649 0.00689204 0.00571 -0.00683555 0.000698565 
0.000911473 -0.00565688 0.010596 0.0261323 0.0280997 0.013719 0.0158999 0.0282181 0.0113857 
0.0171509 -0.00429408 -0.0110804 0.00110268 0.00515179 0.0188318 0.012869 0.00796062 0.00452832 
0.00500518 -0.0296566 0.0202363 0.0021397 -0.0313137 0.019992 -0.0310938 -0.0274608 -0.00410681 
-0.0153425 -0.0154725 -0.0159397 -0.00619174 -0.0229717 -0.038564 -0.0045827 -0.00481433 -0.000711678 
-0.00536615 -0.0495405 -0.0674088 -0.0301556 -0.0665825 -0.0148268 -0.0160141 -0.0532623 -0.0149737 
-0.0294058 -0.0220825 0.00139137 0.00635051 0.00446798 -0.013345 0.00212773 3.82119e-05 -0.000628137 
0.00118334 0.00220235 0.00585669 0.00494865 0.00185927 -0.239498 -0.257054 -0.157394 0.00321152 
0.00356224 0.0274543 -0.00630155 0.0562083 0.0643002 0.0460706 0.0684999 0.0061356 0.000339043 
0.00289843 0.00603292 0.00287927 0.00318164 -0.00538028 0.00875249 -0.0119801 -0.0573567 -0.0434812 
-0.0358709 0.00255717 0.0115376 0.00216115 0.00421826 -0.00030576 -0.00222081 -0.00379122 -0.00421035 
0.00498775 0.0117684 0.00967785 -0.0101555 -0.0107906 -0.00576683 0.0121532 0.00823825 0.00311277 
-0.0050763 0.00511408 0.00578795 0.00360118 -0.0096705 -0.00105528 0.0190566 -0.0192408 -0.0376238 
-0.000543816 0.00712121 0.00303325 0.00595796 0.00689821 0.0108309 0.0194603 0.038461 -0.00498146 
-0.0125386 0.00768776 0.0884182 0.000396088 0.000760137 0.000411973 0.00133596 -0.000752901 -0.00180698 
-0.000507374 -0.00271917 0.0147895 0.0254761 0.00589172 -0.00276809 -0.00730487 -0.00742496 -0.00459523 
0.0292315 -0.0170221 -0.0249329 0.0174344 -0.0154849 0.0213719 -0.00479759 -0.00391139 -0.00553479 
-0.00119457 -0.00142384 -0.00618936 0.010241 -0.0657229 -0.0698849 -0.107809 0.0132068 0.0147944 
0.0170114 0.00742185 0.00740101 -0.00796464 0.0119819 0.0210372 0.0114765 0.00789869 -0.0225363 
-0.0969834 -0.0746062 0.00497438 0.00371308 0.0111353 0.0262383 -0.0284729 -0.0371374 0.016881 
0.0219484 0.0372999 0.0267428 0.013719 -0.00813201 0.0036996 -0.00387095 0.15903 0.0298613 
0.138527 -0.000781763 0.00944568 -0.024568 0.00618026 -0.0223379 -0.0146892 0.00062048 -0.00530797 
0.00602857 0.00031594 -0.0175117 -0.015352 -0.0302703 -0.00622741 -0.00317941 0.00332631 0.00483944 
0.00513391 -0.026505 -0.00283234 -0.00432237 0.00778734 0.000967494 -0.00222063 0.00562862 -0.011561 
0.00695704 0.0221566 -0.00246131 -0.00342994 -0.000237234 -0.00434377 0.00420736 0.00855377 0.0123981 
0.0137773 0.00483943 -0.0352866 -0.0985856 -0.0662782 -0.00173241 -0.00264515 -0.00530269 0.00172696 
-0.00271731 0.00235807 -0.0148013 0.064544 0.00853589 0.0179955 0.0350699 0.0715941 0.144826 
0.0192891 0.0277151 -0.0307426 0.00954699 0.0289608 -0.0144064 -0.00104933 -0.000290011 -0.00158348 
-0.00222951 -0.0210335 -0.0334792 -0.0206097 -0.00193832 0.00172072 0.00674759 0.000218376 -0.00127416 
-0.00479426 0.00149953 -0.00229462 0.00678705 0.00196248 -0.00332513 -0.0077215 0.111904 0.120902 
0.0108166 0.000648095 0.000410412 0.00287124 0.0138505 0.00844015 0.00754842 -0.0549751 -0.0329991 
-0.0307688 -0.0472588 0.00227295 -0.0137054 -0.00073962 0.00666205 -0.000961474 -0.00209037 0.0191774 
0.00258698 0.00242684 0.0248294 -0.0010001 0.0048361 0.0033055 0.000789789 0.00155753 -0.00035235 
0.014059 0.0184094 -0.00560966 -0.00432939 -0.00836495 0.0393629 0.0123764 0.00635984 0.0626078 
-0.00413375 0.0180022 0.00350482 -0.0120979 0.009879 -0.0151933 -0.00456881 -0.0191496 -0.0396902 
-0.00969078 -0.00206415 -0.000259498 -0.00174466 -0.000242194 0.00233188 -0.00403167 -0.0372054 0.0170313 
-0.00933411 0.0307384 -0.0293486 0.041036 -0.0139328 -0.0328644 0.00039303 -0.00775729 -0.00919097 
-0.0319739 -0.0132146 0.00830177 -0.0170796 -0.0202836 0.015253 -0.0260684 0.0172399 -0.00407348 
-0.0147454 0.00382772 -0.00893997 -0.024679 -0.0366683 0.0156047 -0.017076 0.0208142 0.0532994 
0.000991599 -0.00078686 9.75432e-06 0.00032747 0.00108239 -0.00130587 -0.000643743 -0.00119311 -0.00495768 
0.00769544 -0.00237876 -0.00188344 0.0172788 -4.66529e-06 0.000313471 0.00311525 -0.0111059 -0.00596451 
-0.0107846 -0.00259342 0.00461934 -0.0106865 -0.0767942 -0.0830354 -0.0494587 0.0277206 0.0205785 
0.0170226 0.0262394 0.0362223 -0.00196498 -0.00746461 0.00487202 -0.000154095 -0.000968396 -0.0575033 
0.000868085 -0.0345875 -0.0233257 0.0458041 0.0422228 0.00080146 0.0214092 0.028133 0.0376568 
-0.0115993 -0.00863878 -0.00329681 0.00760203 -0.00470585 0.00544747 -0.0170765 -0.0141725 -0.0227097 
-0.00454976 -0.00237452 -0.0111195 -0.000232253 -0.00968804 -0.00283803 -0.00382809 -0.00195101 0.0102584 
0.00421605 0.00112969 0.00835004 -0.0205898 -0.0176658 0.0113157 0.0110514 0.00735701 0.0113279 
0.00695483 0.021608 0.026465 0.0288895 -0.00435744 0.00147112 0.00411104 0.00223095 0.00319663 
0.000671004 0.00500844 0.00600933 0.00843154 0.0108585 0.0175029 -0.00258841 -0.00197885 -0.00305249 
-0.00297758 -0.0099432 -0.00154262 -0.00134385 0.0145501 0.00477587 0.0156971 -0.00318821 -0.00662388 
0.00366457 0.0131354 -0.00524919 -0.0156991 0.00674339 0.00605685 0.00531244 0.00614107 0.0175382 
-0.00405726 -0.000187296 0.00172681 -0.00667089 0.0394853 -0.00733299 -0.0168768 -0.00941516 -0.00779758 
-0.0273466 -0.00517938 0.00718465 -0.0050833 0.000782818 -0.000520115 -0.000862365 0.000997478 0.00288903 
0.0036451 0.00374565 -0.0010135 0.00612286 0.0264278 0.0045109 -0.0310044 -0.0118527 -0.0276193 
-0.0228918 -0.0287291 -0.0467398 -0.0358635 -0.0168106 -0.0504059 -0.0284998 -0.000628277 -0.00704665 
-0.00441862 0.052649 -0.0384562 -0.0517622 -0.0273702 -0.0152693 0.0175881 -0.0183878 -0.00227393 
0.00671387 -0.000390997 0.00620103 0.00199256 -0.00296164 -0.00164348 -0.00845766 -0.00188321 0.0127678 
0.0435025 0.0273501 0.0268187 0.0242517 0.0378172 0.0316434 0.0283162 -0.0141317 -0.0014447 
-0.00665479 -0.00468374 0.0149409 -0.000941092 0.0141298 -0.0159085 -0.00389753 -0.00750247 -0.00216352 
-0.0138108 -0.00606181 -0.028924 -0.00518263 -0.00617249 0.00584001 -0.0178718 0.0176875 -0.00526103 
0.00587107 0.0135345 0.00334383 -0.00190287 0.0313572 -0.00207385 -0.00450915 -0.0161209 -0.0101116 
-0.002871 -0.00728405 0.00960824 0.0271513 0.00938842 0.0240351 0.000933609 -0.000674945 -0.00452781 
-0.00535629 -0.0281816 -0.0346916 0.00367345 0.0058804 0.00796552 -0.00419698 0.00396064 0.0130152 
0.0768843 0.00239172 -0.00810899 -0.0101362 -0.0208043 0.0058111 0.0153095 0.00117178 0.00439249 
-0.00295397 0.00114614 -0.00212363 0.00360374 0.00209851 0.0032763 0.000731217 0.0133571 -0.0108006 
-0.00593871 0.0295877 0.0322731 0.00904182 0.0299233 0.0217848 0.00932752 0.0131081 0.0268799 
0.0126272 0.0210492 0.00695902 0.0133183 0.00736622 0.00883384 -0.0240959 0.00843146 0.0216667 
-0.00592149 -0.0134142 -0.00381779 -0.00964425 0.0221151 0.0164836 0.010101 0.0199368 -0.0171178 
-0.00672664 0.0287649 0.0410144 0.00740549 0.113192 0.0190839 0.0203643 0.0431633 -0.0133682 
0.016849 0.0110452 0.00926916 0.0118564 0.00967101 0.0108571 0.0119675 0.0189682 0.0178423 
0.0123838 0.0174403 0.008917 0.0125785 0.0184922 0.0146577 0.0129908 0.00566118 -0.024168 
-0.0192894 -0.0508459 -0.00332644 0.023987 -0.00281965 -0.0397081 -0.0157918 0.0338793 0.0244667 
0.0117585 0.0044039 0.00977735 0.00330663 0.00788312 0.0205208 0.00168403 0.00855899 -0.00224916 
0.00505786 0.00090267 0.00321524 0.00835403 0.0103685 0.0188749 0.0066156 0.00024232 0.00659831 
-0.00070271 -0.0020907 0.00501781 -0.0265315 0.000211368 -0.0227406 0.00550425 -0.0566128 -0.00729687 
0.0178779 0.00636344 0.00686702 0.0192512 0.0307245 0.00128946 0.000392416 0.00401027 0.00213097 
0.00396428 -0.00106642 -0.00788443 -0.0150604 -0.0936063 0.0779702 -0.0664131 -0.0594752 -0.100631 
-0.0315399 0.0170502 0.0216202 0.0213964 0.0198628 0.00235104 0.00984577 -0.00377685 -0.0103999 
-0.0231449 -0.00932416 -0.000826336 0.00415248 0.0121769 -0.00472596 -0.0150976 -0.000358525 -0.00143134 
0.0129428 0.0249464 0.0310293 0.000342917 -3.3447e-05 0.000591253 3.84328e-05 -0.00510404 -0.00450281 
-0.00216884 -0.0107282 -0.00602842 -0.0282125 0.0215116 -0.0289811 -0.0211858 -0.0274139 0.0011346 
0.0704323 0.0321137 0.028265 0.0829291 -2.52519e-05 -6.27156e-05 2.77319e-05 0.00579007 -0.0087451 
-0.0048329 -0.0335251 0.00338915 -0.0571922 0.0042749 0.0158931 -0.0016506 0.00505073 -0.0186647 
-0.0387049 -0.0187039 -0.00280378 -0.000329482 0.00938602 0.00434509 0.00283584 0.00295816 0.00711273 
0.00162569 0.00356398 -0.00115287 0.0065215 -0.0067878 -0.0298904 -0.000904687 -0.00423167 -0.0212192 
-0.00291652 0.0123877 0.00928728 0.00791308 0.0246055 0.04185 0.037184 0.0127296 0.0166032 
0.0147539 0.00893481 0.0279972 -0.00364917 0.040809 -0.0149694 0.137967 0.014976 -0.0163501 
-0.00389348 0.0270051 0.020602 0.0210831 0.0147112 0.00945633 0.0118998 0.0130327 0.0511991 
0.00437418 -0.0295738 0.000757763 0.0185664 0.00932453 0.0116759 -0.0247965 -0.00497705 0.0338784 
0.0161861 0.00218318 0.00520828 0.0159336 0.0221028 -0.00427277 -0.00583701 -0.00368281 0.0154084 
-0.00206428 -0.00690114 -0.00486637 0.0422071 0.039501 0.0182119 0.0250137 0.00391131 0.0150778 
-0.0376407 0.00244045 0.00501176 0.012874 -0.00107923 0.00286623 -0.0100862 0.101624 0.00619569 
0.012866 -0.00351821 0.00689487 0.00910199 0.0261631 -0.0116337 -0.026387 0.00544479 0.00576476 
0.0240169 0.00169072 0.0123885 0.00786397 0.00156622 0.00447806 0.012269 -0.00536004 -0.0216757 
-0.0153472 0.0106371 -0.011273 0.0399243 0.0268237 0.0263574 0.0703871 0.04928 0.0118223 
0.0449611 -0.0199615 -0.0152203 -0.0316495 -0.0199899 -0.0638148 -0.068832 0.0220081 -0.0418555 
-0.00188121 -0.0286469 0.0250649 0.00867831 0.00466581 0.020421 0.00329674 0.0119424 -0.00539193 
0.00618372 -0.0029153 0.003086 0.00216495 -0.00344937 -0.00753103 -0.00881034 0.00507536 -0.00711113 
-0.00953511 -0.0313783 -0.0192515 0.0202689 0.0174277 0.0294398 -0.076932 -0.0545947 -0.0501086 
0.0039796 0.00330813 -0.0012053 -0.0276625 -0.0103322 -0.0486852 -0.00832376 -0.0128885 0.00412077 
0.00136937 0.0029788 0.0104827 0.0038242 -0.00369462 -0.00282917 0.0210102 0.0193708 0.029265 
-0.00689206 -0.0128523 0.00449084 -0.00540515 -0.00496791 -0.00275205 -0.00480719 -0.0046069 -0.000476547 
0.00320385 0.0197162 0.0067702 0.00307426 -0.00187336 -0.00129523 -0.0042201 0.000135978 -0.00196891 
0.0113881 -0.00484465 0.00309608 0.0055748 -0.00528068 0.0079881 -0.00872217 -0.0217851 -0.037697 
0.0156742 -0.0293586 -0.00921564 -0.0197076 0.0138743 0.0366436 0.0838507 0.0317759 -0.167763 
-0.30311 -0.375843 -0.0636927 -0.111154 -0.0466522 -0.0837021 -0.125491 -0.00450768 0.00347402 
-0.00263514 -0.00412071 0.000706875 -0.00342482 -0.00429823 -0.0217387 -0.013299 -0.0182149 -0.0114358 
-0.027004 0.00972152 0.00497429 0.00643923 0.0113578 -0.00371673 0.00954886 0.00526545 -0.00673183 
9.41828e-05 -0.00541816 -0.00536359 -0.00558421 -0.0676859 -0.0863404 -0.100092 -0.00393497 -0.00854332 
-0.00422971 0.000309267 0.0156641 0.000605 -0.00525781 -0.0301517 -0.0191046 -0.0173564 -0.0237419 
0.0162954 0.00558854 0.00276869 0.0127063 -0.000562912 4.7572e-07 -0.00186283 8.36033e-05 0.000697738 
-0.00159107 -0.00234361 0.00530139 0.0079972 -0.00676073 -0.000526894 -0.0078686 -0.00105288 0.00174634 
-0.00191789 -0.0205495 -0.0277395 0.00604209 -0.0637134 -0.0424855 0.0194681 0.0144361 0.0104762 
-0.1128 -0.048619 -0.108309 -0.0198653 0.0220819 0.0291828 0.0094222 -0.00435344 0.0162423 
-0.0101118 0.0482851 -0.0247335 -0.0502953 -0.0831727 -0.0187784 -0.0164154 -0.000948735 -0.00651127 
0.010132 0.0278934 -0.000900125 0.00329891 0.00685719 -0.00625463 0.0116332 -0.00603872 0.00534996 
0.00170076 0.00954616 0.0065705 0.00214768 0.00720635 -0.00104909 0.00873378 0.01592 0.013386 
0.000709589 -0.00194472 -0.00249531 0.0193203 0.00279581 -0.00212782 0.00862475 0.00756565 0.00384427 
-0.00517442 0.0109606 -0.00117877 0.0767959 0.0182117 0.00752407 -0.0537822 0.0159688 -0.014916 
-0.0144993 -0.022556 -0.0144117 -0.00231699 0.0108719 0.0304385 0.00590488 0.0171703 0.0107083 
0.0126616 0.0174994 0.0294016 0.0153089 0.00415661 -0.0102051 -0.00699867 -0.00342065 -0.00196111 
0.00151283 -0.00746025 0.0065654 -0.0259462 -0.0464356 -0.0348065 -0.0529969 0.00285864 -0.000983685 
-0.0035512 0.00291963 0.000406277 0.00301947 0.00216027 -1.92187e-05 0.00401521 -0.000124671 -0.00111064 
-0.000452115 -0.000446434 -0.00590422 -0.081554 -0.0269446 0.0123506 0.00322776 0.0240404 0.0102085 
0.00352876 0.00582933 -0.00349278 0.0111243 -0.0105854 -0.00728165 -0.00456592 -0.00446726 -0.00537546 
-0.00720958 0.00496674 -0.0180823 0.00760889 0.0112305 0.0145399 0.00277343 0.013969 -0.0107548 
-0.0114857 0.0202413 0.0153158 0.00484448 -0.0102859 -0.0120461 -0.00355136 -0.00693785 -0.00413318 
-0.0269588 -0.0125685 0.0142098 0.0195456 0.0158355 0.021513 0.0184052 0.0122634 -0.0258503 
-0.0247356 -0.0467354 -0.0314904 0.00954709 -0.00440898 0.0214595 0.0315578 0.0369599 0.0364876 
0.0103268 0.0720116 -0.00754653 -0.00761543 -0.00850539 0.00131089 -0.00312717 0.00283301 0.026407 
-0.0106653 0.0140608 -0.0463201 -0.00147958 -0.017072 -0.0474245 -0.0255365 0.198127 0.00166238 
-0.0117691 -0.0134898 -0.00882645 -0.00413851 -0.00701425 -0.0270932 -0.00538601 0.00694072 0.0143172 
0.0153714 0.00423882 -0.00615986 0.00860627 -0.00260775 -0.000736999 -0.000351761 0.00386634 0.00650115 
0.000689702 -0.00185474 -0.00792822 -0.00278454 0.00830041 -0.00197145 0.0078793 0.00458358 -0.00118511 
-0.0104408 0.00126211 0.00908784 -0.0208818 0.0157012 0.0179724 0.0277812 0.015644 -0.00462662 
0.0155068 -0.0246395 0.0141048 0.0133585 0.00305693 -0.0015115 0.00822731 0.0159157 -0.00522383 
-0.0166992 -0.0143439 -0.00318913 0.001331 0.0024513 0.00605062 -0.0033124 0.00101787 -0.00213767 
-0.00309331 0.00924252 0.00844247 -0.0168938 -0.00585797 -0.0159941 -0.0166248 0.0086765 0.00580461 
0.0115488 -0.00069683 0.00147171 -0.00261283 -0.00776044 -0.00407787 -0.0033855 -0.00615319 0.00341861 
0.00759934 0.0196684 0.00379664 -0.00341327 -0.00214947 0.00300428 0.0129969 -0.000231958 0.00301952 
0.00924022 0.010344 -0.0197651 -0.0509237 -0.0953155 -0.000549617 -0.00241893 0.000656534 0.00276468 
0.0105326 0.00762238 -0.0139341 -0.00820533 -0.00282851 -0.00325041 -0.00686285 -0.00404139 -0.00110174 
0.0021737 -0.00151549 0.000932836 -0.00251697 0.00394046 0.0134104 0.0227409 -0.00471317 -0.00612755 
-0.00491694 2.63768e-05 0.00773313 -0.0156668 -0.0118232 0.0403877 -0.00541378 -0.00858441 -0.00390707 
0.0220227 -0.0412931 0.00239494 0.006686 -0.0248297 0.00765975 0.0132204 0.000227899 0.0133951 
-0.00143604 0.000714996 0.00543506 -0.0188608 0.0171798 -0.0723831 -0.0445431 -0.0934077 -0.0168208 
-0.0421461 0.0038712 -0.0244078 -0.0261004 0.0293009 -0.0164214 0.0239579 0.00323929 -0.00547517 
0.00909153 -0.00265881 -0.0275454 0.00523294 0.0175205 0.0100206 0.0109979 -0.0290283 -0.00462744 
0.0415313 0.0185328 0.00745228 0.0256855 -0.00479584 -0.00870015 0.00497806 -0.0567102 -0.0149785 
-0.0323808 0.0384233 0.02667 0.0102287 0.0203127 0.0367271 0.0319956 -0.00517783 0.0095208 
0.00731291 -0.00215851 -0.00557722 -0.00851011 -0.0106444 -0.00159092 0.00689735 -0.00155226 0.00486422 
-0.00374596 -0.00788774 -0.00552373 -0.0051774 -0.00235742 -0.0156988 0.0258204 0.0143522 -0.0320478 
0.0512752 0.0258565 0.0271649 0.00147856 -0.00343322 0.00105247 -0.00453003 0.00471979 0.000717641 
0.00190137 0.0512764 0.0169558 0.00885618 -0.00522205 -0.00258836 0.00373657 -0.0098524 -0.00746689 
-0.00429772 -0.025409 -0.0280579 -0.0116139 -0.0139226 -0.0093389 0.0113602 0.00794118 -0.000654311 
0.00959313 0.00556533 0.0136212 -0.0060995 0.00516174 0.00774015 0.00606741 0.00095182 0.0167196 
-0.00221138 0.0252591 -0.0127588 0.00524529 -0.0214902 -0.0210343 -0.00272906 0.00560787 -0.00278262 
0.00613809 0.0100514 -0.014283 -0.0122132 0.00612194 -0.00664339 -0.00603175 -0.00603136 -0.00299217 