# vtk DataFile Version 4.0
vtk output
ASCII
DATASET POLYDATA
POINTS 40962 float
-34.8981 -29.0439 63.4851 -13.2985 -71.1614 49.9388 -8.23865 -15.8224 50.5923 
-23.8181 37.7572 45.0407 -54.2488 1.09542 23.6209 -45.7395 -47.2804 42.0663 
-35.1907 -74.5789 -4.34536 -18.0845 -52.4734 7.37461 -1.23169 12.7729 13.4078 
-28.3328 25.2716 14.5473 -49.841 -14.9887 3.80841 -33.981 -13.0422 -15.8206 
-50.1662 -9.71769 46.1373 -36.4597 17.9625 40.1308 -26.3373 2.35989 62.1014 
-43.3299 -35.2589 53.2368 -54.6634 -22.7144 34.5805 -17.0418 -45.1763 65.6188 
-27.1531 -53.7641 38.8044 -11.2527 -21.6906 70.0647 -11.225 -48.785 49.7922 
-3.68006 22.3093 64.7557 -8.60875 51.2169 28.2138 -2.76475 9.23116 40.004 
-39.6858 50.6716 21.8944 -9.25543 33.1924 1.22475 -34.2174 15.243 23.4424 
-32.2148 -27.5204 21.7207 -43.6835 -0.619095 3.99052 -60.8621 -38.514 18.9098 
-43.7665 -59.6278 22.2878 -57.7428 -43.3038 -1.12456 -25.0767 -71.8895 13.9148 
-11.5943 -65.0101 27.2653 -12.1345 -80.4776 -3.73679 -0.0938728 -35.7714 31.0639 
-7.84805 -26.7561 14.752 -22.905 16.3643 -9.8325 -32.4784 -16.9237 -0.182838 
-52.6167 -7.17375 -11.8054 -36.5994 -53.2277 -16.1521 -16.461 -45.5918 -7.22013 
-38.6742 -18.1722 52.7762 -37.2219 -3.96364 56.9866 -26.7409 -13.905 51.607 
-32.7451 -31.9064 49.8809 -37.8889 -22.2273 42.5821 -18.0386 -35.5914 53.397 
-30.3067 -43.6969 61.6303 -21.1907 -23.7961 66.3678 -9.77254 -38.7496 64.864 
-20.1274 -9.19761 60.5591 -14.8735 56.3807 40.7655 -5.38646 42.0548 46.6561 
-15.6985 36.7603 57.6516 -28.4768 46.0477 34.115 -17.66 60.2689 22.0364 
-36.3556 30.7742 47.8924 -35.7259 35.201 32.2404 -43.0217 -14.2344 24.5752 
-33.5454 -9.18678 24.958 -45.975 8.76391 14.3456 -60.9809 -14.4587 27.7571 
-45.4694 -25.2331 24.0786 -51.267 -56.1317 32.2694 -44.9358 -47.6294 21.0362 
-54.206 -43.8015 30.0238 -35.0217 -49.205 35.5807 -40.1738 -63.3792 38.5881 
-5.88761 -74.8593 37.4748 -16.3744 -84.0493 28.3317 -20.2877 -67.2046 33.9858 
-4.96029 -62.0638 50.8813 -5.59125 -57.5794 38.3064 -4.82129 -2.04756 49.1025 
-2.60064 -17.1434 37.2657 -6.15298 -26.484 44.8023 0.038715 26.3128 -0.254807 
-14.3461 3.15697 3.46504 -6.09145 -9.15418 -6.23225 -37.4553 4.39461 8.11223 
-38.7581 19.9326 -2.34702 -33.1148 14.5319 0.934231 -49.5741 -27.0476 2.45565 
-57.6582 -26.4943 -7.43101 -53.7447 -7.72292 -1.27608 -18.3106 -87.7486 -14.2564 
-16.4903 -73.8299 -12.0851 -38.5715 -68.573 -16.1166 -5.45356 -38.4084 7.84337 
-12.7089 -30.4513 4.58287 -14.3494 -49.993 3.66503 -57.1185 -1.10347 37.5577 
-41.3277 6.15701 32.9976 -34.2675 -0.0610711 42.1259 -37.6934 14.561 54.9761 
-23.63 20.5792 51.305 -36.6648 -34.757 38.7363 -52.6144 -33.584 44.8873 
-46.3815 -25.6238 43.1604 -51.5111 -11.8767 38.2724 -16.7246 -56.3075 54.8925 
-23.2625 -62.5463 46.4325 -26.5517 -50.5969 54.585 -28.4895 -42.4566 42.5922 
-4.98621 -17.6145 61.1378 -9.08658 -33.228 46.303 -2.31669 -34.9859 60.3833 
-8.12267 -52.0587 65.566 -22.4189 15.7518 63.1095 -10.5883 -0.756493 69.3446 
-5.90277 2.86676 57.419 -3.12894 39.2102 15.429 -0.501791 14.4933 26.8003 
-5.03275 37.7785 36.0095 -8.91137 18.3141 46.8536 -43.8418 33.4791 7.29956 
-25.5337 31.4358 0.969065 -23.1099 44.9623 12.1971 -1.37784 52.9293 6.3994 
-51.6833 19.8697 34.3445 -49.2351 30.2224 18.8265 -29.1494 23.4282 25.7994 
-49.7689 -18.299 14.51 -59.1504 1.85438 8.29862 -38.0955 -16.5816 10.0199 
-37.6429 -1.82028 17.7836 -50.7648 -34.1225 32.3653 -46.7411 -31.2549 19.6102 
-58.7129 -27.6065 8.85928 -42.1293 -66.8369 11.0439 -39.802 -57.2257 0.0955607 
-45.3448 -52.9162 8.73786 -45.1541 -37.3293 10.5834 -27.2048 -65.7013 33.1158 
-33.9773 -78.6734 22.0061 -29.5835 -80.7285 2.55914 -18.5046 -57.7104 17.5852 
-10.9735 -66.0295 7.70051 -1.90073 -69.692 17.6529 -12.6666 -86.479 5.57445 
-7.59041 -42.5163 41.903 -7.71999 -52.1187 27.5342 -0.713158 -45.9125 17.9576 
-2.75715 -11.7996 10.9175 -0.683641 -10.9405 24.9833 0.899373 -34.1001 23.3769 
-22.9894 11.1208 1.88233 -32.2035 -1.50204 -9.81474 -28.125 3.66523 -18.6655 
-19.315 -10.6585 -7.03164 -47.5146 9.39898 -6.62174 -40.8913 12.6931 -19.7069 
-40.7552 -8.70085 -15.8651 -44.3558 -49.6158 -8.85163 -45.7874 -29.9189 -14.9614 
-31.8045 -33.2995 -15.4382 -4.41393 -65.4178 -4.11845 -23.572 -55.459 -6.5001 
-30.0611 -30.8244 -5.30583 -17.2875 -23.9567 3.62841 -23.3891 -22.9379 -0.376642 
-37.5449 -21.4248 58.4662 -35.294 -12.7085 57.2783 -30.0842 -18.4067 61.2735 
-31.1485 -30.7884 51.7611 -31.5528 -23.762 48.4133 -24.2076 -31.5369 57.031 
-24.8799 -33.203 50.1631 -28.1958 -25.9162 69.2036 -20.6954 -32.6555 63.5216 
-24.0938 -20.2878 57.8744 -22.9036 49.9734 46.3287 -14.6689 46.8636 49.2447 
-21.6073 39.4495 53.1259 -26.0681 42.3269 40.0835 -24.2293 52.2407 36.2145 
-28.0591 31.9444 43.813 -33.5836 40.7406 43.2928 -50.0831 -7.11325 19.5103 
-43.113 -4.41233 19.0763 -53.6558 4.82186 16.8464 -59.9786 -5.20041 20.5461 
-52.6292 -14.5834 22.1979 -47.9264 -50.2213 36.9036 -49.1973 -47.5825 30.3203 
-50.1908 -45.9036 35.7108 -39.9006 -48.6952 39.326 -43.0632 -53.4702 37.0412 
-8.9835 -73.6914 43.6369 -14.4259 -74.1265 38.5814 -15.6857 -68.475 41.5402 
-8.84251 -65.6593 49.9979 -5.25284 -66.7766 44.3626 -8.01605 -9.3589 50.0191 
-3.42822 -15.5047 48.0395 -9.45121 -20.5457 46.0796 -2.31746 20.599 9.13289 
-4.15346 6.73753 3.92451 -2.07181 -0.143136 4.71253 -37.7328 17.7192 13.8167 
-37.6271 10.4958 5.05328 -31.2094 21.081 8.92734 -43.8666 -20.8865 2.40974 
-51.2346 -17.8325 0.571413 -45.3431 -11.9347 -0.558554 -28.1781 -82.8756 -9.08221 
-27.0958 -79.9308 -16.5759 -38.0365 -74.5667 -11.3577 -12.3262 -47.4383 6.31274 
-18.1296 -44.0278 3.43905 -22.5941 -51.7961 3.25884 -54.6444 -5.3758 42.4179 
-45.1987 1.83156 41.0758 -43.2647 -2.79496 44.733 -32.9368 -4.53805 64.1739 
-38.8454 3.61343 57.3072 -32.7804 10.5978 62.1749 -29.9794 19.4229 57.4685 
-25.5043 11.3372 54.7317 -37.4807 -33.4028 43.2922 -40.6791 -29.7064 40.7507 
-44.9217 -28.9665 48.9904 -37.8231 -15.3795 39.3814 -43.8478 -17.0866 39.8948 
-43.7571 -10.3594 35.2076 -49.2595 -8.30465 31.5451 -15.6983 -50.1709 58.236 
-21.8434 -53.5387 57.343 -18.2007 -46.8079 54.0746 -38.227 -41.2091 57.3217 
-29.7256 -42.3132 50.5303 -33.8399 -38.4174 45.845 -31.1606 -37.6134 39.0118 
-5.70374 -18.972 67.6121 -3.27842 -27.5457 60.866 -2.99933 -27.4926 68.4162 
-11.3726 -42.7279 63.6241 -4.51048 -45.6997 67.511 -12.3875 -48.8492 69.0196 
-13.0951 -57.1661 62.2781 -20.8271 17.4386 53.1856 -23.0907 7.73653 56.1313 
-18.2366 -15.8543 67.126 -19.2118 -4.38961 71.0525 -11.3866 -12.2219 72.0871 
-4.00153 -10.9104 69.9887 -9.57214 44.8734 20.9676 -2.54756 40.3976 25.3446 
-10.3739 42.7672 28.9313 -4.30517 32.826 55.8641 -4.9406 30.1887 46.6698 
-4.93828 20.9243 53.9671 -6.80505 9.98887 51.8142 -4.99458 11.9107 60.0182 
-43.6245 45.5463 11.4845 -32.1928 39.0879 14.9758 -33.2581 51.8424 12.8633 
-6.38279 64.8355 27.3346 -6.54964 64.4268 13.0922 -5.20661 52.6548 18.9414 
-4.81842 43.7217 13.0835 -35.6386 11.6117 38.1681 -46.851 11.4252 36.8653 
-40.8548 19.2824 36.9927 -38.8272 43.6257 27.3769 -43.8915 36.3719 27.3572 
-42.9625 39.7434 19.4807 -46.7901 32.8863 14.1539 -40.4808 -25.0817 16.3907 
-45.5712 -15.9171 16.7134 -33.863 -21.2608 16.6497 -34.5756 2.2747 25.1437 
-34.0808 -6.02604 22.1657 -31.92 7.06652 24.8049 -31.1742 11.4586 23.1836 
-31.0742 19.057 27.3549 -55.3763 -26.7696 40.4102 -56.5516 -33.5181 38.2837 
-56.9638 -29.0935 33.4795 -36.9 -27.7696 23.901 -41.0353 -32.2438 24.6882 
-38.4381 -31.3127 18.8044 -47.3466 -25.5607 16.3145 -42.2305 -63.4107 16.5542 
-39.3603 -58.4641 10.9012 -44.104 -55.4799 15.2599 -51.5447 -43.6427 18.6756 
-43.9763 -42.4423 15.4936 -49.7371 -37.3902 13.8637 -46.6743 -32.1244 9.60108 
-61.5099 -34.3791 12.3759 -25.6216 -57.8816 43.0157 -26.0789 -64.4942 41.0325 
-28.6267 -59.6304 37.9752 -42.1277 -63.7331 30.0421 -37.1894 -72.4856 31.8337 
-42.2305 -69.2069 22.9843 -40.9352 -72.7217 16.1311 -15.1286 -60.3526 22.4051 
-14.4582 -64.8876 14.762 -13.8052 -71.1439 18.3909 -21.693 -80.6974 18.6676 
-9.51555 -86.2973 17.6584 -17.9804 -82.1533 10.929 -22.2392 -88.223 5.0258 
-25.3708 -76.6254 9.02687 -10.9196 -41.9809 47.2274 -13.645 -38.5255 41.4853 
-11.6196 -46.2134 43.742 -2.87648 -64.1966 32.3923 -6.55106 -54.1532 32.3117 
-0.97432 -63.6093 24.3307 -3.10385 -60.7509 17.7799 -0.595064 12.7871 34.1015 
-0.404624 0.716732 26.5267 -0.290041 -0.807518 33.8403 -2.64043 -26.9749 33.2172 
-2.06655 -26.1849 31.5749 -3.74646 -35.6482 28.5748 -2.87375 -41.3351 21.7841 
-0.489877 -41.7333 25.6563 -18.8164 30.6761 2.51825 -22.4561 21.4985 -2.77387 
-13.0641 19.4988 -2.03337 -21.1074 -8.67671 0.853738 -25.0995 -3.36892 -1.20635 
-35.327 -9.80187 -4.91514 -26.3419 -5.63203 -7.3638 -32.8314 -15.4672 -4.68938 
-51.7788 6.12783 12.0363 -51.206 4.60448 -0.131896 -52.942 16.1431 6.19768 
-31.5802 22.3199 -8.51473 -39.1984 24.3747 -15.2851 -29.6544 19.4411 -18.6458 
-31.6532 10.0058 -25.69 -21.9027 12.1778 -20.3784 -48.617 -51.226 -0.577679 
-45.0905 -55.0211 -4.88091 -52.0236 -46.8308 -6.27041 -54.3563 -17.0893 -8.74689 
-54.284 -28.8162 -12.4451 -55.1691 -18.4307 -15.2519 -44.3914 -19.614 -15.0169 
-51.7201 -7.50919 -19.9464 -10.5317 -74.6187 1.81304 -4.68616 -68.6656 2.21423 
-2.90741 -75.8759 -7.11242 -25.302 -66.0575 -13.7941 -19.4765 -65.3201 -9.1412 
-23.6747 -56.5625 -12.4397 -21.9791 -46.0849 -10.9936 -34.2157 -43.5895 -15.5495 
-4.7038 -20.0083 12.2774 -6.74802 -19.1867 4.71999 -10.4096 -26.2548 7.17234 
-9.99916 -34.2755 -0.644979 -19.904 -27.9545 2.91542 -17.8681 -30.9618 -7.17143 
-21.0106 -26.5418 -8.47273 -25.4877 -38.7624 -3.84133 -45.0226 -14.4924 49.1994 
-45.3318 -3.21801 53.2686 -41.7022 -9.40151 54.5154 -32.2632 -9.3547 52.6557 
-25.6279 -7.45015 55.8891 -39.4845 -31.3729 61.3258 -43.3345 -23.8566 58.0127 
-35.47 -25.9573 47.7679 -32.7044 -19.8283 43.3609 -17.6427 -39.5087 62.6983 
-22.8761 -43.2232 63.429 -25.0678 -37.3709 60.4083 -32.9424 -36.3685 59.9544 
-15.6869 -22.9823 65.9816 -10.579 -28.9337 71.4322 -16.7118 -31.8765 70.5848 
-12.8674 -37.0501 58.2066 -21.7968 -3.08056 57.3486 -21.706 -12.4472 53.1694 
[...]
POINT_DATA 40962
FIELD FieldData 2
thickness 1 40962 float
2.27411 1.54257 1.35668 1.96638 1.91077 2.98663 1.83196 3.47443 2.69347 
2.43488 2.47988 2.93473 2.57622 1.70336 2.35164 2.27632 2.32224 1.28838 
1.00421 2.56053 1.14608 2.39537 2.71509 1.89857 3.04837 1.97415 3.07819 
2.29183 2.24772 2.9886 2.27451 2.97754 2.15882 2.1334 1.14412 3.03766 
0 4.21712 1.22161 3.78327 1.4848 1.18218 2.79066 2.88922 1.41968 
1.46902 1.23236 1.2817 1.55694 1.24103 1.31213 2.40417 3.35697 1.61425 
3.60365 1.33911 1.80799 1.63187 1.4603 3.61104 3.01861 2.78323 3.11152 
2.11917 2.15077 2.13144 1.84865 2.18975 2.94993 1.19956 2.10852 1.81076 
2.80505 1.78054 2.94725 2.11707 3.18106 2.49469 0 0 3.03465 
2.82125 3.26053 2.2207 1.73146 2.60292 1.71278 1.99032 3.21693 1.96332 
0 0.93992 2.40556 2.05694 1.52988 2.77041 2.11584 1.72775 1.35309 
1.72248 1.26193 1.28692 2.07275 1.65869 1.86325 1.85821 2.7748 2.50322 
2.70871 2.57807 2.00614 2.58973 2.8787 0 2.71257 2.28233 2.90566 
3.28919 1.34746 2.98861 2.68738 2.5224 2.05512 1.32674 2.45615 2.90704 
3.48902 3.34128 2.60963 2.43234 2.17948 1.28446 2.13379 3.27045 2.77759 
2.982 3.1148 1.7941 1.80104 1.51318 1.73435 1.18501 2.90178 3.27615 
0 0.83868 0 2.6387 1.26473 2.07166 2.4933 1.85813 3.77143 
2.24327 2.48049 1.58471 4.07729 1.91609 1.63415 2.02923 0 2.05499 
2.62226 3.28481 2.10852 1.99236 2.06704 3.27279 1.12508 2.12282 2.80004 
2.11969 2.40996 3.09166 2.83489 1.62276 1.88124 1.56543 1.25213 2.26623 
3.35562 3.00112 2.0116 3.06309 1.90552 2.10148 3.51165 2.39215 2.45132 
2.18771 3.21374 1.78456 2.32327 1.84885 2.71525 3.5329 1.67583 2.27826 
0 0 3.55844 4.00242 3.77061 2.93018 1.62517 2.01541 1.61429 
2.72668 2.88668 3.09628 1.67516 1.242 2.58183 2.64901 1.42447 2.61595 
2.40472 2.70121 3.01019 2.05826 1.31909 1.84557 2.33455 1.7131 1.55264 
2.23946 1.30782 2.20267 0.99441 1.57069 2.12378 2.34734 1.42581 1.8711 
2.30358 1.58998 1.91832 1.24775 1.33703 1.72878 2.55935 1.97985 1.8175 
1.90487 1.42629 2.38911 2.49974 2.8784 2.86765 3.59771 2.03811 3.96827 
1.5365 3.43147 3.46368 2.5211 0.90275 2.35177 3.22298 2.49771 1.29369 
2.84557 1.03403 2.72683 1.30883 1.41251 1.669 1.42405 2.09042 2.17794 
1.72293 1.99374 2.24145 2.58491 2.0176 2.5644 1.77621 2.32787 2.61188 
2.7889 2.11915 1.89972 2.27576 2.92625 3.45258 2.28126 2.55547 2.62275 
3.81729 2.59673 2.36587 2.9482 1.06864 1.59487 1.81826 3.01619 2.92382 
2.82701 3.37545 3.28921 1.14809 1.49562 2.4463 2.42229 1.22997 2.53554 
1.71109 2.08392 2.18328 1.56335 2.58948 2.36973 2.19042 2.50708 0 
0 0 3.16043 1.63425 2.26873 1.17664 3.07677 4.03403 3.16119 
2.90263 0 4.46288 0.79709 3.90147 2.93792 3.24056 2.89943 4.33101 
3.05286 3.84136 2.69364 4.60169 4.81092 3.48998 2.37396 2.3896 2.7235 
2.42706 2.73809 3.43819 2.34549 1.8408 1.68666 1.15852 1.74415 1.51839 
2.75154 1.28036 3.08295 0 0 0 2.78233 2.3999 2.84615 
2.95576 1.78296 2.4955 3.25287 2.01572 1.74676 1.67887 2.27549 1.82927 
1.91792 2.71621 1.20238 1.78253 1.27807 1.65026 1.6418 2.81115 2.08774 
1.89375 2.43669 2.12753 1.05853 2.45281 2.14834 3.18547 3.46712 2.98231 
2.60814 0.94416 1.82983 2.39813 3.16948 2.52948 1.29912 3.04181 2.57472 
2.29379 2.99256 2.41847 2.8204 1.62664 2.21265 2.49229 2.4098 2.14387 
2.47652 2.38856 1.34456 3.48117 1.21821 1.95099 1.57684 3.1725 2.37757 
1.6835 2.45778 2.43993 2.28919 1.98332 2.18759 2.27578 1.17391 2.67556 
2.17782 2.00433 3.37727 3.60874 2.36942 2.41468 3.52064 0 0 
1.98829 2.24991 2.69455 3.23405 3.73162 3.71856 3.16433 3.19497 3.28932 
3.30966 1.97621 1.08072 1.69387 2.30134 2.65608 0.89733 1.26105 1.41855 
1.80271 1.66787 2.04128 1.34914 2.49898 1.29306 1.92458 2.47361 2.46182 
1.34846 3.21988 2.71475 1.9451 1.94555 2.80585 2.08215 1.35886 1.67678 
2.42747 1.6105 1.67361 2.36884 1.11193 2.01092 1.16467 2.63491 1.83177 
2.00434 1.37122 1.72431 1.45998 2.6828 1.58965 3.48084 3.16559 2.77188 
2.19267 1.57121 1.47059 1.83183 1.83366 2.12138 1.5507 2.45063 2.79953 
2.62059 2.26244 1.77973 2.88435 2.59039 2.70323 1.43017 3.61112 0 
0 1.38164 3.15742 1.50089 2.11364 1.73966 2.48326 2.76913 2.97004 
2.62677 1.86382 2.20214 2.47169 2.58271 2.32773 1.85373 2.40229 2.4289 
1.69368 2.35001 1.56203 1.23066 2.99222 2.69246 2.34735 1.89131 3.10378 
3.41655 1.4844 2.32034 1.53927 2.15752 3.17883 3.23146 2.96177 3.3618 
2.56045 1.14798 2.97431 2.09004 2.85328 2.05207 2.54086 3.3908 3.87138 
2.54017 3.09667 3.09213 2.34187 1.54532 2.0121 2.4132 2.57231 2.39646 
2.3333 2.27181 2.11335 1.41123 2.31651 2.65076 1.74904 2.21444 2.42204 
2.09547 2.14564 2.07704 2.41939 1.05809 1.68258 2.10695 2.63162 1.23632 
1.30839 1.57865 1.39788 2.1541 2.17063 2.73105 2.36208 2.69692 2.86417 
2.94062 2.50032 3.60492 0 0 0 0.60183 0 0 
0.30039 0.79921 3.22628 2.43435 2.48208 4.17163 1.38518 4.01058 4.68905 
3.40465 3.85165 2.93801 3.15374 1.998 2.53385 2.83118 2.48086 3.70849 
2.83251 3.91843 1.86772 2.31102 3.49994 2.77097 2.2409 3.11306 2.73175 
2.18184 2.43694 3.15427 3.07201 1.05467 2.14604 2.33307 2.00312 1.13904 
1.44914 2.21371 2.57682 3.14724 0 0 0 0 0 
2.39952 4.48481 2.09438 2.07682 3.18987 2.93193 2.90996 2.68079 2.28114 
2.27635 2.34667 2.84281 1.37334 1.10827 1.46906 2.60694 1.24866 3.28753 
1.61806 2.4224 2.03178 3.10771 1.76829 2.20905 2.63292 2.99955 2.15577 
3.53108 2.36312 2.90845 3.26378 3.32988 3.08392 2.98504 2.99408 1.60704 
1.84762 1.54882 4.37931 3.5411 0 2.77815 3.53996 2.80203 2.44116 
2.67917 2.77892 1.32577 1.39591 2.62142 3.65751 2.40769 2.0835 2.68161 
2.29791 2.6361 1.31555 1.33972 3.47649 2.61581 2.06661 1.37876 2.80655 
2.20609 2.74225 2.18312 3.25485 2.43425 1.31182 1.6795 1.61463 1.89274 
1.96115 1.61559 0.84467 2.3102 1.29486 2.17352 1.15702 0.85617 1.64454 
1.59326 1.72943 1.59817 2.24458 3.40092 1.87439 1.84243 3.61215 3.65268 
2.98405 3.43239 2.88742 1.46158 2.61532 2.79084 2.40404 3.80368 3.41948 
1.517 4.07289 1.86138 2.58894 2.09127 1.17162 1.54295 1.75788 1.84343 
0.94472 1.88615 3.14733 2.27212 2.55757 2.76846 2.71415 2.10583 2.09456 
2.67743 2.59315 3.23989 2.15195 1.68657 1.45124 3.14797 2.98513 1.91782 
2.51555 2.81206 1.72825 1.68256 2.09419 2.65035 2.92899 0.85752 2.85461 
1.80604 2.13333 3.11012 3.37147 2.69357 1.85809 1.4788 2.06172 2.48483 
2.68444 1.25403 1.49028 1.86983 2.80216 2.56477 1.68578 2.46052 1.88907 
2.45747 2.87329 0 0 0 2.61507 2.81706 2.10226 1.64026 
3.37858 2.81223 2.3466 1.92772 0 4.49798 3.41115 1.98155 3.40281 
2.62618 3.94109 2.43944 3.13676 4.38617 4.00378 4.47888 4.23593 3.21596 
2.64004 2.24851 2.23033 2.42283 1.99562 2.90098 2.20673 1.2762 1.42628 
1.23768 3.12377 2.02136 2.96747 2.98531 2.1836 0 0 0 
1.80602 3.13126 2.24112 2.33631 2.24238 2.30857 2.97417 3.00011 2.36748 
2.70781 2.94937 2.79095 2.37627 1.46816 1.49412 1.11617 1.75736 1.58598 
3.07257 2.71189 1.33724 1.45796 1.18593 1.57198 1.58999 1.922 1.62497 
1.31975 1.51077 1.8937 1.18647 2.25765 1.37495 1.00655 1.84801 1.41675 
0.94321 2.06562 1.36102 1.52709 2.816 2.61452 3.27316 2.13071 2.62719 
3.67758 3.80765 4.32812 1.27843 1.44069 2.15388 2.54123 1.32463 2.73225 
3.5595 1.12883 1.1098 1.29975 1.95122 2.84319 3.32413 2.28726 2.84176 
2.7065 2.89873 3.104 2.41917 2.55165 2.49199 2.94976 1.81687 1.55869 
2.92699 2.44591 2.18022 3.09701 2.70249 2.20682 1.98681 2.33164 2.8507 
2.94081 1.67904 1.65432 1.83276 1.4791 2.28324 2.14394 2.25044 2.98117 
1.75722 1.97956 1.62338 1.46373 2.79323 2.34594 2.61644 2.84415 1.5477 
2.89005 2.13657 2.20632 2.48545 2.26096 1.69792 1.43763 2.00208 3.3667 
2.17566 2.83652 3.78566 3.15659 3.63481 3.49064 2.93912 1.20017 3.01807 
1.20607 0 0 0 0 0 2.59838 1.97178 2.61791 
3.48224 1.96774 1.70358 3.19702 1.89852 2.28476 3.53576 3.98819 3.09132 
2.00163 3.05407 3.81667 3.05617 3.15962 1.69296 2.84608 2.12631 1.89011 
2.37373 2.58873 2.15323 1.6692 1.62477 1.91598 1.07079 2.3402 1.47253 
1.46344 1.09449 2.39072 2.94286 2.81264 2.37945 2.45485 1.64766 1.15559 
1.39134 3.38515 3.10871 2.90613 2.63219 2.75002 2.17465 1.8513 1.96525 
1.87223 1.26191 2.12143 2.29417 1.51815 2.46616 1.50975 2.53906 2.39598 
2.23871 1.97881 1.72056 1.63354 1.69368 1.60394 1.36529 1.96094 1.18466 
1.30332 1.2112 1.41934 1.16388 2.47206 2.74267 1.6906 2.54613 1.40148 
1.78802 1.84303 1.08138 2.42162 1.86459 2.2652 2.66874 2.07003 1.92705 
2.36352 1.74975 2.64946 2.52203 1.35838 1.27215 1.67245 2.33802 1.79811 
1.99234 1.93604 1.79031 3.1884 2.93172 1.32762 3.07888 2.87177 1.93693 
2.46558 2.25601 2.07431 2.60618 2.36407 2.63898 2.81923 1.80569 1.91739 
1.29804 2.19226 2.94367 1.5463 1.40946 1.55156 1.59405 1.47645 0.95234 
1.06675 1.05133 1.28833 2.13406 3.13849 2.56072 3.17879 2.74233 2.21886 
1.722 1.56774 1.30239 2.05597 1.46384 2.47715 2.6907 3.32874 2.75342 
3.42923 3.06083 3.25893 2.79928 2.50699 2.51377 2.17402 3.87844 2.39494 
2.10325 1.9011 3.40737 3.74192 3.17055 2.84217 2.8346 2.59583 1.756 
2.19928 1.79535 2.20767 1.93311 1.74728 2.69986 2.68918 2.58024 2.27683 
2.54879 2.39609 2.34004 2.2636 1.92126 2.65216 1.4047 2.50945 1.66942 
2.74757 2.00318 2.41745 3.01499 2.36258 1.54217 2.22114 2.41886 3.33849 
3.06585 2.69455 2.87121 2.10325 2.01703 1.81308 1.96339 2.58059 2.4141 
2.23207 2.35037 2.25713 1.04416 1.76985 0.96631 2.72597 2.47968 2.90759 
1.83046 2.43499 2.60168 2.21839 3.25071 1.44267 1.59096 2.19745 3.35584 
2.41575 1.97224 1.30797 1.98681 1.95659 2.23771 2.42769 2.03702 2.85888 
3.20085 2.4767 3.36067 3.01336 3.4378 2.98771 2.82159 3.99099 2.09327 
2.51459 2.65975 2.46769 2.61329 1.61068 1.6892 1.53369 2.53318 2.39667 
2.47193 3.01309 2.33128 2.20416 2.85617 2.48339 2.80357 3.08049 1.6144 
2.46807 2.78325 2.74557 2.7214 1.97475 2.61896 2.95284 4.14704 1.85414 
3.37368 2.14814 1.27725 1.5088 2.26496 2.91483 2.07458 2.03461 1.96905 
2.11953 2.71207 2.24294 2.42084 1.53967 3.18446 2.20376 2.13426 2.0878 
1.70358 1.91279 2.43453 2.62602 1.26484 1.3478 1.19888 2.00114 2.36372 
2.90966 1.78302 2.06376 2.79516 2.70699 1.97866 4.02587 3.11853 2.69814 
2.04855 1.93683 2.16245 2.84251 2.38666 2.35712 2.43077 2.03996 1.72122 
1.62306 1.73939 2.25246 1.91477 1.67266 1.24769 1.45488 1.83185 1.57607 
2.38341 1.82903 1.83524 1.85021 1.19666 1.69142 1.74517 1.40551 2.88427 
2.39238 2.86925 1.7891 2.7215 2.45147 1.761 1.98714 2.15188 2.24492 
2.38696 2.73726 1.6434 2.8918 2.69955 1.69121 2.81044 2.38174 2.85821 
2.8147 2.46434 1.97458 3.15592 1.78491 2.71343 2.48391 2.50904 0 
0 0 0 0 0.91469 0 0.77518 2.86258 0 
0 0 0 0 1.18593 0 0 0 3.08637 
3.03227 2.81443 2.76995 2.70979 2.84301 1.96472 2.48081 3.2063 3.02893 
1.90717 1.85329 2.10739 1.70071 2.68462 0 0.85645 4.99195 1.14561 
2.45419 0 2.57142 0 4.74448 3.44628 3.78085 3.11709 4.08532 
2.28632 2.89765 3.17241 2.25334 2.92748 1.6286 2.47268 3.1114 2.25289 
4.15129 3.03131 2.88367 3.88351 3.97577 2.52484 3.03189 4.33826 2.66358 
2.25043 2.78312 2.44261 3.63103 2.17345 1.97502 3.23672 3.1586 2.46733 
2.26428 2.40824 2.70051 2.77363 2.55578 2.05788 1.84562 3.42803 2.5515 
2.36619 2.07144 1.68228 2.83193 3.83327 2.71613 2.6566 2.47075 2.50984 
2.47076 1.30791 2.69975 1.06168 1.26833 2.17906 1.52342 1.7286 1.31105 
1.91627 1.15353 1.41112 2.01063 1.82187 1.90516 1.24814 1.73928 1.88419 
2.64643 2.92823 1.52695 2.9599 3.8337 5 0 0 0 
0 0 0 0 0 2.35769 0.54969 2.49274 2.68911 
3.19772 2.35444 2.38216 3.25904 2.83313 2.96318 2.41039 3.08487 2.57384 
2.04211 2.35459 2.61234 2.55271 2.71252 1.42355 1.10157 1.56134 1.70698 
3.10577 1.88122 1.30666 1.15015 1.60038 1.45011 2.41106 2.98607 3.10595 
2.63389 1.52618 2.61658 1.16563 1.3007 1.1725 1.95996 1.66082 2.55464 
1.51654 0.96583 1.86379 3.32139 2.73025 3.27299 3.10112 1.24536 2.49304 
3.0122 3.0165 3.23685 3.44315 2.71176 2.54738 2.85487 2.39379 1.87788 
1.84756 1.72988 2.04491 1.86171 1.64428 1.99589 2.14465 2.30671 1.64104 
2.64379 2.93578 2.40579 1.84755 1.87291 2.69025 3.04493 2.65573 2.95952 
3.00675 2.43883 2.60576 3.33508 2.7452 3.61344 4.23322 0 0 
4.55514 3.83352 3.71366 4.81568 4.94799 3.49165 4.0104 2.32542 2.87868 
3.29854 1.25931 1.76046 1.22951 1.65931 2.18126 3.41928 2.90347 3.1717 
1.25005 0.86568 2.33579 2.60214 3.13156 1.98963 2.26482 2.24233 2.62775 
1.64157 1.88019 2.53259 2.83837 3.17517 2.24216 2.55572 1.35705 2.25149 
2.61687 2.24494 2.45339 1.1681 1.24597 1.4828 1.20433 1.01657 1.51024 
1.39509 1.35133 1.55905 1.46634 2.5098 1.79848 1.5613 2.58184 1.76309 
2.6512 2.2685 2.10733 1.39179 1.34568 1.35545 1.38323 1.58255 1.0547 
2.16357 2.40581 1.47457 1.76252 1.1998 1.37442 1.99414 2.76238 2.3106 
2.67937 2.16992 1.95766 1.65558 2.44666 2.68597 2.00203 3.09702 3.36695 
1.90094 2.80662 2.40585 1.57596 3.30111 3.12285 2.17437 2.21984 2.57093 
3.10098 2.82007 2.77472 2.44545 3.08641 2.9626 3.12371 3.1416 1.75048 
1.778 2.44555 2.00792 1.02077 2.99233 2.76059 2.59202 2.84626 3.50012 
2.72186 2.10644 1.07802 1.92758 2.95826 2.59778 1.95709 1.67367 2.34477 
1.16007 1.09275 2.33363 3.10912 3.33718 2.29156 3.25786 3.84043 2.25572 
1.33842 1.45826 1.39113 1.67535 1.8927 2.57152 2.08099 1.87417 2.10852 
3.04881 1.80803 2.09803 1.5536 2.57817 1.37343 2.38495 3.43504 3.32196 
2.2082 2.64991 1.56502 2.40083 2.256 3.09621 2.1269 2.56579 2.39623 
2.06534 2.34393 2.82153 2.34826 3.55069 2.64656 2.36377 3.31952 1.89874 
2.49335 2.51398 1.22767 2.38413 1.31043 1.58888 2.38276 1.61023 1.66701 
3.02746 2.9411 3.36878 3.56284 3.20443 2.58501 2.14083 1.90311 2.18592 
2.0337 1.5193 1.79387 1.5938 2.5239 1.54322 1.17287 2.42153 2.57712 
1.21195 2.25514 2.65935 2.74343 2.20893 1.95149 1.58074 2.04536 2.68372 
1.42145 1.68524 1.46506 2.58923 2.86585 1.84333 1.89059 2.26455 0 
0 0 0 0 2.62982 1.04335 2.54762 1.85094 1.53835 
1.54524 1.73801 2.06533 3.48024 4.05976 2.27678 2.8212 3.3152 4.28737 
0 0 1.0964 3.33925 1.35964 2.60864 1.75959 3.6491 4.07375 
3.29699 3.16045 4.21965 2.66531 3.46099 3.13708 4.23452 4.90385 2.57757 
1.99227 4.80503 3.21056 4.58234 2.97377 3.0518 3.19585 2.74108 2.53246 
2.05593 2.82733 1.94091 2.38776 1.72436 3.4867 3.53797 3.20241 4.94256 
3.83038 2.5956 2.68145 1.43758 1.83757 1.51219 1.21664 1.30822 1.34287 
1.86227 1.99275 2.60428 3.16925 2.73161 2.95739 0 0 0 
0 0 2.24664 0 2.11458 2.41043 2.32445 1.39656 2.76487 
2.59922 1.8266 2.09798 2.38581 2.2345 3.48518 2.56056 2.65411 1.45897 
1.44044 2.08163 2.98738 3.0398 2.42258 2.28471 1.64288 1.23657 1.57567 
1.41914 1.10321 1.14533 2.52339 3.09758 1.20808 1.1633 1.59401 2.45476 
1.58286 1.32245 1.19053 2.26114 2.88667 2.43229 1.95866 2.62358 1.82169 
2.06753 3.24154 2.79182 3.22439 1.57844 1.11717 1.10893 2.05558 1.55394 
2.02545 2.51627 2.50089 2.60171 2.59579 1.32389 2.45206 1.70952 2.3567 
1.24262 2.16569 2.96671 3.41861 4.189 2.62244 3.01364 3.41017 3.4824 
3.33388 2.77979 2.24416 1.13381 2.007 2.16528 2.78271 2.85071 3.90986 
1.94871 2.73302 1.727 2.79229 2.17769 1.46564 2.0723 2.87288 0.98733 
2.51988 1.86422 1.92525 1.7641 2.82572 1.835 2.20254 3.09112 2.82216 
2.60219 2.25513 3.04971 2.54934 2.21473 1.93158 2.17451 1.36688 2.00319 
2.5191 2.68077 2.10279 2.29356 2.86714 2.14389 1.90158 2.17232 2.59343 
1.26526 1.54523 3.28042 2.96379 2.2248 2.20791 3.25123 1.06821 2.34225 
2.28198 2.04601 2.70631 2.12248 2.70953 2.87737 2.45603 2.24998 2.05918 
2.12143 1.17653 1.46775 2.14859 3.0597 2.97769 2.0089 3.15821 1.93221 
2.05524 1.71248 2.64297 1.51394 2.57012 2.42746 1.73739 1.3373 1.52678 
1.29766 2.5909 2.14369 1.90067 2.00762 2.4336 2.02034 3.18871 2.34813 
2.00635 2.85695 3.29018 3.44771 2.20151 2.40342 2.27523 2.47696 0.60094 
1.17662 0 0 0 0 0 2.0104 2.38155 2.41732 
2.18548 3.51358 2.43878 2.87903 3.1008 3.24861 3.35121 3.32539 3.60461 
4.04905 3.82254 2.42157 2.65155 1.4375 3.2466 2.90007 2.5606 2.06406 
3.51362 1.29611 1.10187 2.7937 2.04647 1.96012 2.28587 2.77948 1.88675 
2.3394 2.28752 2.10158 1.29765 0 1.32465 1.28837 1.18905 2.06098 
1.65213 1.80543 1.8629 2.3338 1.47179 1.04299 2.64734 2.53468 1.72639 
2.50232 2.66873 2.20471 1.23744 1.81243 1.62391 2.44051 1.7642 1.51035 
2.30577 2.47553 2.85416 2.73134 1.63516 2.38787 2.14627 1.85831 1.96231 
1.07463 2.68003 3.72489 3.18581 1.08798 1.25473 2.13526 2.11198 2.57942 
1.83964 2.66578 2.13884 1.77963 1.20234 1.68071 2.31382 2.0253 2.40205 
2.17905 2.07401 1.51923 1.31165 2.11849 1.17604 1.51652 1.24169 1.72738 
2.02308 3.26423 2.12818 1.23983 1.26564 2.09601 2.19962 2.16383 2.88466 
1.40075 3.36361 1.90629 1.10835 1.96394 3.0529 1.1892 1.54799 1.30076 
1.2521 1.30636 1.66659 1.81173 2.73805 1.43013 2.30735 2.12104 2.34264 
2.18259 2.72115 2.16773 3.0968 2.67216 2.36386 2.18388 2.20178 1.78762 
2.23539 1.74724 2.14845 3.1224 2.74325 2.29828 2.76656 2.69348 1.9544 
2.20754 2.08178 2.70566 2.7221 1.68001 2.27217 1.39501 1.98198 1.64663 
2.61765 2.1082 1.15154 1.65785 3.30034 2.15791 1.99111 1.86437 1.45713 
2.25378 2.04853 2.39125 3.25386 2.0386 2.25799 2.43962 3.44266 2.60553 
2.76847 2.08517 1.73399 2.57846 2.42108 2.58943 3.22753 1.82117 1.99304 
2.21028 2.98723 1.963 2.84043 3.30189 2.23719 1.43543 2.53054 2.5533 
1.75012 2.96978 1.54739 2.79517 0 0 2.20686 0 0 
0 1.54848 2.23117 2.26921 2.5561 1.60675 1.79908 2.11366 2.16249 
2.92879 3.63711 2.38654 3.28604 2.89098 3.29814 2.05736 1.78195 3.14665 
2.99905 1.94963 2.63303 2.50469 2.75165 2.55288 4.31756 1.66812 1.91146 
2.04525 2.67621 2.78939 1.33525 2.16811 2.849 1.3886 1.49893 2.08857 
3.25028 2.30584 3.32669 1.96258 1.80172 1.93123 2.8031 3.13105 2.05711 
2.90658 3.02298 3.11669 3.19308 2.74465 2.68812 2.69809 2.52474 3.11047 
2.7541 1.09187 2.39729 1.43489 1.49501 2.15442 2.14595 3.18934 2.59019 
2.7819 3.25899 2.19484 2.55036 1.52284 1.36147 1.20772 1.06953 1.80982 
2.03545 2.30607 2.61287 1.90071 2.82625 2.61271 3.18458 3.53403 1.27105 
1.94391 2.17288 2.26406 2.42006 2.18821 2.43183 1.5385 1.62152 3.84983 
3.13297 2.19703 1.96041 1.53888 2.10831 2.1881 2.80356 3.25832 3.08253 
2.4053 3.11628 2.73244 2.6624 3.20948 3.08099 2.59542 1.8546 2.2758 
2.85896 2.82855 3.04627 3.6346 2.19155 2.66353 3.85468 2.75879 4.24035 
2.92788 2.15999 2.23616 3.43616 2.37082 3.70134 3.14849 2.42817 3.13819 
3.20825 3.40139 2.76288 2.16576 2.22332 2.52104 2.46174 2.32811 2.30612 
2.07741 2.16119 1.53086 2.48643 2.85906 2.98181 2.45198 2.67702 2.65966 
2.4063 2.4963 2.82909 2.64111 2.2955 3.01203 2.71616 3.09975 2.73594 
2.66236 2.15038 2.13403 2.77577 3.06105 1.82359 1.15191 1.45071 2.98613 
2.48571 1.60356 1.69764 2.11133 2.66686 2.05715 2.57622 2.26479 2.40057 
3.22232 2.29656 2.03844 2.95459 2.61937 1.51062 1.7935 2.80494 2.41095 
2.15766 2.03421 2.30275 2.47041 1.96661 2.70324 2.55795 2.6714 1.33769 
1.54207 1.81608 1.77572 2.19796 1.55743 1.41902 2.29523 1.27069 1.33222 
1.3638 2.58598 1.54104 1.37273 1.4695 1.39095 2.62048 1.50303 2.31019 
1.57628 1.81194 1.66584 1.53958 1.67354 1.24393 2.12435 1.87116 3.31166 
3.10689 2.42951 1.96478 2.82791 2.63153 3.16282 2.99763 2.75844 1.65538 
1.66058 2.92765 1.88902 2.34567 2.49815 3.29621 2.66292 2.76706 2.18646 
2.91984 2.52295 2.12143 2.51382 2.52963 3.30954 0 0 0 
0 0 0 0 0 0 1.04658 0 0 
0 0.78598 0 0.87937 0.7985 0.86745 1.13509 1.04365 0.87715 
2.18889 1.37151 2.56587 3.00998 4.04228 3.24683 2.88827 2.10025 3.48369 
1.72995 3.0633 2.5601 2.00843 4.12119 2.9835 2.83162 3.3796 1.49456 
0 0 1.4204 4.34434 2.26848 4.26048 4.81548 4.51572 3.52655 
2.00339 3.1844 2.51567 2.59379 2.53773 2.20568 2.90823 2.49118 2.56001 
2.68205 3.03711 2.3094 2.94773 2.52278 3.74783 2.4529 3.05614 3.74968 
4.13549 1.81025 2.31638 3.0245 3.64158 2.07374 2.02521 2.81512 4.40801 
2.68707 3.29281 2.09388 2.10996 1.62686 1.93966 2.26769 2.63398 2.18384 
2.29 3.9704 2.89523 2.57846 2.96171 2.22348 2.60685 2.66301 3.04709 
2.74477 2.19248 2.62048 2.56826 2.6327 2.5295 2.97891 3.11498 3.38578 
3.13584 3.31478 2.75991 3.14013 3.43749 2.61585 1.75843 1.17699 1.37109 
0.8869 1.45794 1.17152 1.15785 1.61628 2.21418 1.84518 1.02741 2.3527 
1.39972 0.92944 1.11022 1.1147 1.33557 1.27098 2.0509 1.75269 1.53999 
2.70044 2.6275 2.33239 2.7313 2.49725 2.61863 2.63655 0 0 
0 0 0 0 0 0 0 0 0 
0 3.95474 0 0 0 1.11657 2.64492 2.37499 3.49646 
3.73903 2.1793 3.11081 3.50012 2.74279 2.33899 2.28917 2.19123 2.21177 
2.80496 2.71545 2.51153 2.68097 2.39445 2.41904 2.56184 1.38098 1.36792 
1.58249 1.25103 1.0959 1.80284 1.32334 1.62424 2.01637 1.46584 1.48118 