# vtk DataFile Version 4.0
vtk output
ASCII
DATASET POLYDATA
POINTS 10242 float
-34.5973 -29.1639 64.1719 -35.7957 -27.398 64.5734 -36.1375 -27.7376 62.7251 
-34.2018 -30.0485 61.3592 -32.8749 -30.7771 63.4365 -7.87521 -16.2403 51.1368 
-9.21277 -19.1832 48.5401 -8.38498 -14.1978 50.3111 -28.6785 25.7617 15.5493 
-27.9062 23.5443 12.5842 -29.1328 24.9323 15.3988 -50.6116 -13.9667 3.90142 
-47.7103 -13.6811 2.91993 -47.1948 -16.1528 3.24646 -43.8911 -34.8878 54.0019 
-43.9594 -33.5928 52.0474 -41.5707 -36.6089 51.8514 -11.1677 -22.9658 69.5438 
-10.4137 -21.5175 70.5366 -13.1033 -18.2842 70.5152 -3.82871 23.395 65.2727 
-3.56929 21.0002 63.2925 -3.75606 24.6285 63.5237 -8.27724 51.9339 28.26 
-9.67364 48.8661 27.0623 -8.20721 51.0082 26.1991 -36.7284 18.0166 40.3921 
-37.2971 20.9564 39.1329 -34.8682 14.7677 40.6633 -31.3433 -26.3944 21.6299 
-32.936 -27.9779 21.398 -31.9906 -27.5933 22.5119 -60.7237 -38.8336 19.5441 
-61.0407 -37.594 16.1387 -58.7993 -40.8018 19.2889 -27.3146 -53.1608 38.9442 
-26.8634 -55.1956 38.4201 -26.44 -54.9977 39.9523 -9.30452 33.8527 1.35005 
-9.05824 31.7023 0.485733 -8.90259 32.4342 -0.759292 -52.3267 -6.61139 -12.023 
-52.5618 -7.18839 -13.1018 -53.1239 -9.012 -11.5629 -36.4804 -53.1018 -16.1506 
-34.02 -53.1688 -15.6861 -34.5551 -55.0302 -16.1665 -37.8971 -18.5361 53.3018 
-40.6952 -17.5264 55.1065 -40.2202 -17.4665 50.4673 -29.1153 -12.7191 51.5968 
-24.627 -14.5406 51.4284 -27.446 -12.3088 51.4236 -15.3698 55.6327 40.8027 
-13.7907 54.2289 43.3982 -13.6238 58.8142 40.4842 -15.6531 36.7263 57.7248 
-13.26 37.9393 58.3202 -15.6949 38.5904 56.5012 -15.968 56.3136 40.1384 
-42.1168 -14.3756 24.9571 -41.6915 -15.2869 24.5284 -44.7351 -14.2867 23.8988 
-50.6454 -57.1904 32.7511 -51.7248 -56.0327 30.4974 -50.7849 -57.3821 30.8837 
-5.48082 -3.25984 49.2083 -3.64971 -6.61227 49.5609 -3.90358 2.39902 48.6342 
0.159441 28.0613 -0.60995 -0.443184 24.4585 -1.10968 -0.141437 27.7627 -1.50519 
-5.64301 -9.42361 -6.19656 -7.33332 -7.52122 -5.9015 -5.27905 -7.60997 -5.29201 
-8.97582 -9.4276 -6.82543 -33.4269 14.9451 1.30827 -32.1581 13.604 -0.104428 
-33.5678 13.4077 0.38612 -39.4412 -67.8284 -15.4182 -36.1395 -70.0366 -17.5516 
-38.0597 -70.1221 -16.5185 -37.9898 -67.4392 -16.1164 -56.8726 -1.43205 38.1888 
-57.5146 1.23027 38.2047 -57.9786 0.0947316 35.3193 -55.8128 -3.02845 37.1122 
-25.1721 -49.4645 53.0011 -29.4162 -50.4252 53.5307 -26.2939 -51.7945 56.629 
-31.7528 -43.6131 60.834 -28.8792 -43.9715 60.2636 -28.4785 -43.7347 62.3948 
-38.7197 -34.001 39.0182 -34.7029 -37.6227 39.0881 -33.5296 -36.3007 38.5315 
-11.7519 0.0431895 68.1375 -8.89184 -1.03208 71.0031 -9.17701 1.97292 70.4424 
-2.84095 39.5435 16.0122 -1.86409 38.4302 16.5663 -2.42806 37.9131 14.6628 
-5.03275 37.7785 36.0095 -2.86644 37.3798 35.7107 -4.3545 38.839 34.9688 
-3.46357 36.609 36.9307 -6.17864 4.13788 56.7191 -5.65925 1.86605 57.91 
-6.61691 3.77867 54.9115 -22.4553 46.1787 12.8267 -23.6704 43.8937 11.4955 
-24.9054 43.234 11.6591 -1.40505 53.2636 6.6679 -1.70881 52.2949 4.1671 
-2.46089 57.1535 6.40452 -40.7036 6.18574 33.5169 -43.2526 6.76643 31.1043 
-42.9173 5.8953 31.3499 -35.3055 37.1502 31.7754 -36.4432 32.8984 32.5685 
-36.7693 33.1489 34.03 -43.4108 33.3224 7.07796 -44.3232 32.0112 7.91276 
-45.218 33.4405 8.32113 -29.1702 24.0677 25.9033 -29.2486 22.1836 25.3675 
-29.312 19.4817 26.3258 -29.1485 24.4565 24.3956 -48.2535 -18.7316 14.2306 
-53.3283 -15.4249 14.55 -48.2464 -21.8675 15.306 -28.3574 -66.8963 34.4128 
-25.8842 -64.3133 31.9738 -26.5636 -65.5205 34.8465 -28.6474 -67.0452 33.353 
-33.9773 -78.6734 22.0061 -32.9812 -78.1623 23.3419 -34.212 -77.7189 23.8602 
-32.7283 -78.7767 20.8966 -33.7227 -79.2091 20.2425 -41.9245 -66.9863 11.1848 
-42.3822 -66.9138 9.74372 -41.0772 -67.5685 9.95911 -17.9267 -58.4898 18.5157 
-19.7616 -57.6246 16.027 -19.0638 -55.5739 15.8432 -13.0205 -87.4771 5.82975 
-12.1301 -84.8909 5.04852 -12.9337 -86.3921 6.60685 -12.1336 -88.4251 4.13883 
-5.75276 -59.3368 38.9737 -5.61799 -55.8438 37.0089 -5.24765 -58.235 39.5097 
-17.15 -57.6651 18.3202 0.986806 -35.083 22.0598 0.983836 -32.9414 22.9759 
0.627548 -31.4481 26.0209 -26.0237 31.9576 1.25981 -26.4521 29.0642 -0.642873 
-28.952 32.0334 1.13288 -31.8678 -1.09107 -10.0414 -32.5931 -0.320329 -9.77843 
-33.9557 -2.39204 -8.56853 -20.0795 -11.2955 -6.31137 -17.7462 -10.6923 -8.49151 
-19.5612 -9.49843 -6.98273 -59.1504 1.85438 8.29862 -57.3608 1.20813 6.26074 
-59.2201 0.384337 7.82021 -47.086 10.3303 -6.69 -48.2393 7.50643 -6.3377 
-47.1535 9.04578 -6.15025 -48.944 9.56089 -6.69608 -37.5788 20.3415 -3.25804 
-38.7734 22.4104 -1.85845 -40.3254 20.6575 -0.710464 -40.7418 12.965 -19.4468 
-42.1854 11.4372 -19.4735 -41.363 12.9339 -18.5427 -40.8824 12.3952 -20.645 
-57.9252 -26.0151 -7.39003 -56.8265 -28.2135 -7.23043 -55.8753 -30.6262 -5.53415 
-40.7161 -7.23489 -16.7024 -40.7777 -11.3027 -14.7252 -41.4336 -8.12387 -17.55 
-39.5446 -7.31291 -13.3073 -4.89046 -66.0646 -4.88058 -2.90525 -63.2699 -1.72575 
-3.48737 -65.4918 -4.87852 -3.314 -62.0254 -0.580608 -16.9201 -73.6388 -12.1628 
-14.6685 -74.5397 -12.1465 -16.1978 -74.6085 -11.8843 -31.646 -34.0901 -15.2696 
-31.6633 -31.2114 -15.675 -29.3017 -34.9234 -14.276 -31.5822 -30.8713 52.8084 
-32.6125 -30.2211 52.1865 -30.1335 -30.6859 49.8678 -37.6713 -21.8139 58.9155 
-38.2773 -20.3089 58.8016 -35.0287 -22.1938 55.0309 -30.2683 -31.5275 55.1415 
-27.8418 -25.674 69.1769 -27.496 -24.3035 67.8769 -29.3336 -25.0889 68.3531 
-22.9036 49.9734 46.3287 -22.1004 49.2964 47.2378 -21.9587 51.2899 45.8618 
-22.5226 39.6746 53.0395 -19.5306 40.0248 53.1137 -22.5855 41.3141 52.4756 
-23.3743 50.6474 44.8038 -23.8126 48.9221 45.1702 -27.6996 31.4367 43.857 
-28.7337 34.405 43.1548 -29.0965 31.8309 44.5611 -47.507 -49.8535 37.4863 
-49.3008 -52.2319 35.2276 -46.9782 -50.7824 38.3436 -9.30278 -73.5682 44.1382 
-9.87781 -73.6259 41.8564 -8.28844 -74.2536 42.1675 -14.9912 -68.9155 42.4037 
-17.3507 -67.3938 40.3998 -11.7397 -72.024 42.0276 -7.6679 -73.7616 43.7393 
-30.463 21.2369 9.68525 -32.9306 20.6769 6.43945 -34.4953 20.5117 8.44426 
-27.8461 -83.3979 -8.53806 -28.3217 -82.3202 -10.4433 -27.0719 -84.3387 -9.54166 
-37.8757 -75.6165 -10.3705 -37.7522 -73.8563 -12.4216 -36.18 -76.2658 -11.6449 
-22.573 -51.7352 3.10576 -22.4035 -49.5906 3.33173 -22.6833 -51.2034 3.91493 
-32.9368 -4.53805 64.1739 -34.2018 -3.3561 64.3313 -34.1539 -5.21012 63.0604 
-32.671 10.0637 62.3148 -33.9954 12.0522 61.4281 -34.2136 8.55655 62.269 
-38.8336 -14.0428 38.6863 -38.097 -14.7548 38.3135 -34.9855 -18.9843 40.1204 
-45.1234 -9.65625 34.2411 -41.2483 -12.3196 36.0501 -40.5712 -12.3471 36.9015 
-35.5196 -38.9367 48.2342 -30.8549 -38.002 42.2791 -33.2028 -39.5635 46.5966 
-37.3486 -32.368 41.8917 -34.2154 -34.5073 41.9636 -38.6614 -34.5473 45.8703 
-10.7521 -12.0874 72.1118 -11.9909 -11.2716 72.1154 -14.0039 -13.3969 71.8855 
-9.93919 45.4639 21.9289 -6.90665 42.6366 18.7961 -8.54845 43.2034 18.2075 
-4.47854 19.6761 53.633 -5.30894 22.0092 52.6329 -5.65745 22.4838 56.7058 
-43.6245 45.5463 11.4845 -42.0165 45.6209 10.2478 -43.2941 43.8637 9.76365 
-33.8049 52.7624 13.2785 -32.3571 48.8187 12.145 -34.0395 49.7334 13.1528 
-31.4293 49.6608 11.8583 -6.7711 63.8722 29.0723 -5.83865 65.8843 25.0136 
-7.67099 66.3493 26.0227 -5.15469 53.4028 19.4474 -5.88681 52.5641 16.106 
-5.62796 54.2278 17.217 -9.64842 44.8745 19.8226 -39.7631 20.2412 37.0449 
-43.1489 19.3739 36.6118 -40.8911 16.9483 37.4299 -44.7144 43.3941 11.5738 
-44.4645 44.7558 12.8952 -56.7762 -28.5847 32.3591 -56.111 -30.858 35.8382 
-57.9654 -28.574 33.9415 -52.799 -30.4706 32.3813 -34.4364 -28.8476 23.7691 
-37.0608 -28.7025 23.5957 -38.9089 -26.4855 24.1214 -51.4681 -36.7979 13.6518 
-46.522 -39.0405 14.6217 -50.6882 -38.8678 15.0694 -61.4804 -33.8529 11.9658 
-59.8394 -32.6912 10.8029 -60.0607 -35.6153 12.6195 -44.542 -65.2237 17.7841 
-40.7997 -62.6533 16.0594 -42.5192 -66.6617 18.6131 -14.4021 -61.0551 23.3389 
-16.2399 -61.11 21.6751 -16.0881 -59.5252 21.196 -17.8524 -81.0548 11.2765 
-15.9886 -84.4751 12.1893 -15.9983 -82.8138 12.6122 -26.5512 -74.5591 9.23893 
-26.5539 -79.8006 8.65322 -22.7943 -78.2822 8.92342 -0.97432 -63.6093 24.3307 
-1.01644 -61.7571 25.5718 -1.09626 -63.8742 25.7794 -1.04606 -63.2903 22.8389 
-13.9099 -60.1797 22.7889 -52.942 16.1431 6.19768 -53.9022 14.99 5.32891 
-53.038 15.3687 7.60959 -53.442 15.3622 3.74462 -51.9072 -47.0496 -6.04903 
-53.1459 -46.724 -8.98011 -51.3002 -49.433 -5.37855 -2.82708 -76.485 -7.85391 
-3.16111 -74.8114 -5.65564 -4.9259 -75.5596 -5.84106 -1.64774 -75.083 -8.40915 
-25.7627 -66.0496 -14.1534 -23.7268 -66.0501 -12.5082 -24.1078 -67.2328 -13.6869 
-24.0846 -59.7696 -13.1475 -23.3875 -53.7589 -11.8677 -23.5629 -57.7824 -10.894 
-11.3791 -26.6465 6.72727 -9.57518 -23.7132 6.16639 -9.20597 -26.0904 8.25064 
-17.3592 -31.2598 -7.2778 -18.6653 -30.1603 -7.01558 -16.2989 -29.3194 -7.14744 
-26.7184 -42.2872 -3.66123 -27.9273 -37.5259 -3.54091 -24.1653 -36.1258 -4.13415 
-40.8571 -9.15347 53.8992 -42.8969 -8.60679 55.4317 -43.4081 -9.65093 55.6177 
-31.4402 -9.60233 52.4155 -33.8246 -8.6998 53.6717 -34.1789 -9.26404 52.0625 
-34.9335 -24.4872 46.5445 -36.9869 -24.3603 48.6048 -36.0233 -27.1246 48.8842 
-31.9586 -20.1405 44.2793 -34.604 -19.1404 40.7414 -31.4824 -21.0458 43.0516 
-26.0722 -37.0722 58.6768 -26.1945 -37.694 63.2381 -23.415 -37.322 59.3921 
-40.3473 -30.1019 61.0644 -40.3311 -32.1873 62.0337 -38.2347 -32.4902 61.2637 
-16.7118 -31.8765 70.5848 -15.6911 -31.1008 71.1744 -17.0084 -30.2927 71.0559 
-15.6208 -32.8286 70.3679 -15.2675 -23.9207 66.6315 -17.2796 -20.4958 64.045 
-17.3179 -21.528 64.2767 -14.1332 -23.0742 67.0153 -15.804 44.8225 49.3671 
-13.6891 48.2668 49.4946 -15.1093 48.0077 48.1276 -6.16903 45.3585 57.6993 
-5.36742 42.8231 59.0422 -4.84757 45.981 56.3484 -9.37527 33.8164 63.981 
-8.44158 30.5141 65.9266 -8.05509 33.5333 64.708 -23.5536 50.5491 27.6541 
-22.4342 51.3889 26.2759 -23.6207 49.7048 26.1622 -24.2405 55.2282 36.7071 
[...]
POINT_DATA 10242
SCALARS Gauss_Curvature double
LOOKUP_TABLE default
0.0121777 0.0129744 0.00966447 0.00456891 0.005025 0.0120009 -0.00726945 -0.0082889 -0.0709315 
0.0657827 -0.072275 -0.00316735 -0.00277517 -0.0030185 0.00787101 0.00365638 0.00206686 -0.0114517 
-0.00651958 -0.000595044 0.000315151 0.00590038 -0.00804157 -0.0032998 -0.00367405 -0.00408287 -0.00661381 
0.0344357 -0.00807192 0.0277489 -0.0416611 0.0747114 0.00837744 0.00286414 0.00457088 -0.0235042 
0.0359209 0.0240391 0.000152861 0.00294673 0.00491032 -0.0646345 -0.0274373 -0.0606383 -0.00646428 
-0.00333026 -0.00330346 -0.00278142 -0.00774852 0.000324778 -0.0291384 0.0668551 -0.0382715 0.0287199 
0.00653082 -0.0150224 0.00721699 -0.00370452 0.00318726 0.0289782 -0.0108109 -0.00560901 -0.0228777 
0.011561 0.0119191 0.00499871 -0.00060139 0.00429883 0.000953427 0.0115019 0.0187857 0.0194648 
0.00744874 0.0232328 0.0351243 0.00547681 -0.0119454 -0.0861001 -0.0640951 0.0246588 0.012435 
0.0181923 0.0141755 -0.01001 0.00114914 0.00758105 -0.0121592 0.00211648 -0.00364709 0.00506209 
0.00581865 0.00509118 0.014515 0.0121164 -0.00748614 0.0120444 0.0219321 -0.00583359 -0.00518019 
0.0283389 0.0111139 0.0226003 0.00403428 0.00990182 0.0166332 0.0206791 -0.00932971 0.00186142 
-0.0125525 0.0712857 -0.022772 -0.0746167 -0.000282248 -0.00651073 0.00401944 -0.0406071 -0.0250362 
-0.0334995 0.0731794 0.061641 0.0183486 0.00430939 0.00600227 0.00830529 0.0436814 -0.00633474 
0.00361269 -0.00129407 0.00152061 -0.00141508 -0.000709986 -0.0234181 -0.00342374 -0.0190278 -0.00403732 
0.0282729 0.000191813 -0.0149909 0.0293009 0.0285211 -0.0962728 -0.0669072 -0.0890662 -0.0353279 
0.0332225 0.0499638 -0.0604571 0.0995218 -0.0795796 -0.00915619 0.0392196 -0.0698674 -0.00345837 
-0.0505077 0.00432646 0.00134607 0.00380983 0.00420651 0.00114873 0.00410011 0.0317967 0.0437082 
0.0310503 -0.00124073 -0.00603709 -0.0123309 -0.00256266 -0.00687758 -0.0153694 -0.0717078 0.00418116 
-0.121613 -0.00330005 -0.00210988 0.00755297 -0.00295264 -0.0324377 -0.0229673 -0.0230225 -0.0157313 
-0.0265334 -0.0594261 0.0170381 -0.00317551 -0.00358766 -0.00534976 0.00782105 0.00918184 -0.0147075 
-0.00720921 0.00435739 0.152378 0.0157846 0.179018 -0.00106062 -0.00240754 0.00156197 0.00744571 
0.00901496 -0.0170193 -0.00920551 -0.0197197 0.00934497 0.00232619 -0.00113128 -0.00630398 -0.00600707 
0.0324347 0.0167281 0.0218805 0.0340886 -0.0331764 0.0491183 0.00820417 0.00723847 0.0387754 
-0.0118143 0.00679243 -0.0661749 0.00302246 -0.0131109 -0.0106258 -0.0344693 -0.0419795 0.0169182 
-0.0321762 -0.00621514 -0.0018372 0.0144809 -0.000931551 -0.0121242 0.0229025 -0.0174186 0.0335543 
0.0203938 -0.0128921 0.0135262 0.0934664 0.106389 0.164826 0.049422 0.0418657 0.0458748 
-0.00636114 0.0104477 -0.0100499 0.0304125 0.0676329 -0.0625564 0.0219352 0.00794236 0.0311403 
-0.000569515 -0.00906327 0.00418935 -0.00826233 0.00682044 -0.000738928 -0.0132839 -0.00475448 0.00916966 
0.0110072 -0.0137741 0.0444275 0.0123003 -0.00879802 0.0235458 0.00798256 0.00232179 0.00916435 
0.0105315 0.00664228 -0.00520072 0.012861 -0.0392247 0.0203627 0.0222265 -0.00207366 0.0629764 
0.0220334 0.0804484 0.00184011 0.000927324 -0.00401675 -0.00178665 0.0108363 0.0066873 -0.010204 
0.015551 -0.00624289 0.0679983 0.00263904 -0.00795889 0.00171442 -0.00291203 -0.00211947 0.0103894 
0.00399078 0.0143844 0.00450421 0.0284882 -0.0253007 -0.0357496 -0.012623 0.0382024 0.00770739 
-0.000853091 -0.00437789 0.00582015 0.00827941 0.000845437 -0.00250464 -0.000459744 -0.00568353 0.00981994 
0.0505352 0.0128993 0.00942347 0.0127832 0.00361385 -0.0203727 0.0109119 -0.0476757 -0.00262788 
-0.00468077 -0.00541938 0.00258669 -0.0278307 -0.0377489 -0.022905 0.00754858 -0.0149851 -0.00351338 
0.0224781 0.00827232 0.02362 -0.00305278 -0.0243856 -0.0143278 0.00408604 0.0093667 0.0034228 
0.0194602 -0.0423898 -0.0508288 0.0117332 0.00213099 0.0119748 -0.0124708 -0.00553451 -0.000927023 
0.0327719 -0.0557634 0.0734749 -0.0016531 0.0046102 -0.00163887 0.00181515 0.00402116 -0.00468873 
-0.0153655 -0.0140754 -0.023126 -0.00609229 -0.0427259 0.00759033 0.0040689 -0.0292208 0.0116496 
0.00231691 0.00421262 0.0028274 0.00491801 0.00963467 0.0019998 0.0029201 0.00144492 -0.0299015 
0.0474218 0.0753558 0.0117433 0.00679689 -0.00573884 -0.0139387 0.00995686 0.0207817 -0.0128488 
0.018913 0.0248327 -0.014081 -0.020971 -0.00970932 -0.0157489 0.0299157 0.0170412 -0.0211175 
-0.0359448 0.0115006 -0.00341792 -0.00894857 0.00519842 0.00763705 0.00603096 0.0109412 0.00415755 
-0.0153763 0.000386258 0.00459607 -0.000139405 0.00825148 -0.00634344 -0.050096 -0.0586267 -0.1225 
-0.0141325 -0.000532177 -0.00240653 0.00152776 0.0163582 -0.0262171 0.0145548 -0.030982 0.000434487 
0.0124178 0.00497525 0.00342787 0.0108782 -0.00342791 0.0124768 -0.00442317 0.0102673 -0.00486137 
-0.00371397 -0.00986446 -0.00641695 -0.0185321 -0.0115413 -0.00420673 0.000211072 -0.0122317 0.0127975 
-0.00297262 0.00184402 -0.0750778 -0.0998851 -0.0185111 -0.0133036 0.0256073 0.011797 -0.00213758 
0.0049456 -0.015563 -0.0115725 -0.0432102 -0.0159972 -0.036908 0.00946877 0.00371188 -0.00439097 
0.00495239 -0.00627279 0.0195279 0.0112693 0.00421807 0.00261193 0.018926 0.00471433 0.00304984 
0.0306327 0.0187486 -0.0431791 0.0137404 -0.00234602 0.00585675 0.00750077 0.16574 -0.0139696 
0.00791143 0.00607338 -0.0094126 0.0217164 -0.0155333 0.0182554 -0.00860005 -0.00138149 -0.0156065 
-0.00643527 -0.0483535 -0.054543 0.0140422 -0.00191088 0.0195108 0.0223833 0.0024607 0.017587 
0.0164632 0.00389938 -0.0400053 -0.0141437 -0.0383741 -0.0178032 -0.00900731 -0.0012972 -0.0117501 
0.00640782 0.00310745 -0.00062726 -0.0124758 -0.0643334 -0.00765174 0.0207441 0.0157279 0.0256432 
0.0123258 0.0104798 0.00827783 0.00621869 -0.0055968 0.0120453 -0.0154371 -0.0140666 -0.00314005 
0.0136439 0.00827049 0.00691307 -0.0413896 -0.0624798 -0.0271306 -0.00605813 -0.00607497 -0.00249609 
0.00862107 0.0120327 -0.00561808 -0.00986322 -0.00886014 0.00647787 -0.0136552 0.0107664 0.000471107 
0.00294563 -0.00136935 -0.00265594 -0.0037467 -0.00274512 -0.00702018 0.0144743 0.00758582 -0.00366744 
0.0130953 0.00346927 0.0127749 -0.000771309 0.00387706 -0.00105372 0.00354776 -0.00482253 -0.000452731 
0.00184329 0.00458151 0.00599705 -0.0298378 -0.00633992 -0.0144667 -0.0128141 -0.00264103 -0.00364486 
-0.00046116 -0.00111381 0.00889047 -0.00368273 -0.00389489 0.0211706 0.0207438 -0.0390756 0.019403 
0.041537 0.0184419 -0.0821894 0.123956 -0.0099529 -0.00153983 -0.00349803 -0.00114128 0.00127186 
-0.0347234 -0.0271266 -0.0338653 -0.0341696 -0.0454198 0.003288 -0.00141598 0.000202012 0.00159597 
0.0291911 0.017131 -0.00362539 -0.00744092 -0.0208942 -0.00413455 -0.00998656 -0.0156904 0.00709484 
0.00108274 -0.000503695 -0.0529653 -0.0162391 -0.00773713 0.00273605 0.000453784 0.00222736 -0.00902579 
-0.00634647 -0.00902205 -0.0246827 -0.0208238 -0.0302513 -0.0120055 -0.00900139 -0.00755078 0.00868164 
-0.00626855 -0.00182891 -0.0137133 0.0132833 -0.000121728 0.0136833 0.00336946 0.00423682 -0.030352 
-0.0111225 -0.0141269 -0.00670199 0.0213455 -0.00605287 -0.00581329 -0.0018637 -0.0150964 0.00457442 
-0.0113512 0.00841073 -0.00778624 -0.00955097 -0.00163643 -0.007046 -0.0126364 -0.011249 -0.00959262 
-0.00881325 0.00510858 0.0131873 -0.00100214 0.0543395 0.0199405 0.023579 -0.0279692 -0.0221069 
-0.0393373 0.00345987 -0.00269578 -0.00487844 -0.000548765 -0.00174522 -0.000958961 0.00215181 0.0438455 
-0.0582744 -0.000391584 -0.000313757 0.00084347 0.00114947 -0.00559548 -0.0062928 0.114599 -0.000619822 
-0.00828803 0.00659249 0.00743457 0.016224 0.00558511 -0.0058713 0.0308528 0.00800832 -0.0630238 
-0.0295509 -0.00873367 0.00923516 0.00844277 0.000428354 0.0168135 0.00592657 0.0183089 -0.000992661 
-0.0167271 -0.0241338 0.00871536 0.0123414 -0.0166106 0.0301965 0.0204187 0.0105737 0.0189365 
0.00448332 -0.00113935 -0.0189769 0.0495849 -0.0565284 -0.0230842 -0.0148534 0.0470786 -0.0112087 
-0.0183079 -0.0112092 0.00778668 0.0043937 0.0057145 0.0117635 0.00847444 0.00997468 -0.0182329 
-0.0406663 -0.0125915 0.0118049 0.0118231 0.0106163 -0.00750302 0.00716327 0.0193745 -0.0131607 
-0.00505186 -0.00403505 0.141166 0.00382244 0.0268963 -0.00410036 0.0123597 0.00728993 -0.0022328 
-0.000939148 -0.00076347 -0.047342 0.0216881 -0.0242417 -0.222873 0.0226263 -0.0133299 -0.0174624 
-0.00916389 0.0362133 0.0109779 -0.0163197 -0.0393421 -0.0191784 -0.0551851 -0.0183975 0.10982 
-0.0283747 0.00322509 0.00826635 0.00751336 -0.0264707 -0.00630083 -0.00874272 -0.0126638 0.0167971 
0.0110945 -0.0568279 0.0310342 -0.0202359 -0.0225035 0.00968997 0.0145388 7.58789e-06 -0.0032633 
0.00337244 0.00351668 0.00174694 0.00514904 0.00232653 -0.00490295 0.00519471 0.00753417 0.00147163 
-0.00363728 0.000852309 -0.00226999 0.00343266 -0.00126425 0.0141337 0.00243078 0.00306791 0.0183881 
0.0979132 0.0999766 0.0477349 0.0225507 0.00971356 0.0165612 -0.00670953 0.0307721 0.00106064 
-0.0381707 -0.00726242 -0.00182344 -0.00292668 0.0136435 -0.0065095 0.0340382 0.0115395 -0.00620096 
0.0220814 0.0146695 0.0350187 0.000172038 -0.00811043 0.00354747 0.0196785 0.0326456 0.0311175 
-0.0649518 0.0167428 0.0320808 -0.0220047 0.025226 0.0739318 -0.0806327 -0.0150016 0.0362659 
0.00946733 0.00432446 0.00907686 0.00352537 0.00547393 0.00499043 0.00375253 0.0237232 0.00692196 
-0.00180409 0.0502347 0.00319495 0.0187123 0.00476212 -0.00774793 -7.44259e-05 -0.0166286 0.0411001 
0.0820516 0.052968 0.0337932 -0.00304826 0.00272742 0.00153496 0.00651754 0.00718743 0.00232442 
0.00328736 0.00105266 0.00175005 0.00471669 0.00281648 0.0109355 -0.0169167 0.00967155 0.00659799 
-0.0060844 0.00307541 0.0354248 0.0484948 -0.014776 0.014484 -7.56954e-05 -0.00718171 0.0447702 
-0.0166826 0.0702497 -0.0236009 0.03603 0.0211901 -0.0740204 -0.0165929 -0.000140488 -0.0182389 
-0.0186889 -0.00490625 0.015212 -0.0166359 -0.0111089 -0.0024437 0.01756 0.00272934 0.0177261 
-0.0109421 -0.00238191 -0.0105144 -0.0127088 0.0107215 -0.0068259 -0.00869014 0.0113698 -0.00249811 
0.00293297 -0.00054417 -0.000804064 -0.00437438 -0.000883414 0.00181171 -0.00832372 0.0209436 0.0359118 
0.00689428 0.003934 0.0235416 0.0102994 0.00935465 0.00429989 0.017307 -0.0531545 0.0516049 
0.00799085 0.00280552 0.00102159 -0.0104176 -0.0218904 0.00943443 -0.0105562 -0.00503086 0.0115726 
-0.0103936 -0.0150095 0.0234514 -0.00990899 -0.00426375 0.00309737 -0.0201621 -0.0524593 0.0165361 
0.230461 0.0948043 -0.00221273 -0.0109073 0.0153178 -0.00276053 0.00647943 0.0202701 -0.0194371 
-0.0152022 0.0160034 0.047293 0.018606 0.0455147 0.0437607 0.0268783 0.0205446 -0.00654848 
-0.00235782 -0.00585399 0.00435744 -0.0135023 -0.000348448 -0.00222507 0.0212021 0.047086 0.0123042 
0.00409499 0.0520096 0.0384751 -0.00378484 -0.00113835 -0.010082 -0.00180081 -0.0236759 -0.00891226 
-0.00173835 -0.000662607 6.69128e-05 0.0245876 0.0209464 0.0218169 -0.00244937 -0.0029882 -0.00192148 
-0.00269119 0.00279716 -0.00274893 0.00906272 0.00993338 0.0116362 0.00527639 -0.000369458 0.00789744 
-0.00387369 -0.039367 -0.0116208 -0.000139614 0.0106182 -0.159672 -0.161178 -0.056056 -0.00485154 
0.00114878 -0.00406483 0.00567436 -0.00475331 0.0093647 0.00500634 -0.000640417 -0.00162054 0.00331683 
0.0107373 0.0123757 0.00400063 0.00543313 -0.00789953 0.000944108 0.0422404 0.0297086 -0.0398973 
0.00509281 0.00799879 0.0395856 0.0182966 0.0157248 0.0552664 0.00225041 -0.00985565 -0.00256675 
-0.00745578 -0.010917 -0.00191195 0.00496951 -0.00672783 -0.00139546 0.0105656 0.0228887 0.00645962 
0.0280987 0.0180941 0.0269757 0.041304 0.0157708 0.0153573 -0.0125237 -0.00891889 -0.0296432 
-0.00539627 -0.00309734 0.000493397 0.00239106 8.05234e-05 0.00377554 0.00485726 0.00241236 -0.0172604 
-0.00214315 0.0192985 0.0206073 0.014854 0.0110436 0.00215211 -0.00667355 0.0113364 -0.0155885 
0.0135434 -0.0159406 0.0046261 -0.0826376 -0.108943 -0.0853716 0.00431063 0.00268856 -6.4295e-05 
0.00049154 0.0125192 0.017222 0.0146526 0.0116388 -0.0164093 -0.0166001 -0.0189561 0.00824055 
0.0194338 -0.0129428 0.00504422 0.0144978 0.0105543 0.00502674 0.00843593 -0.0682161 0.0175987 
-0.0414231 -0.0457664 -0.05104 0.0267439 -0.0554786 0.0303808 -0.0100273 -0.015882 -0.0456535 
-0.00760627 -0.0159195 0.0165633 -0.0228772 -0.0285577 -0.0402599 0.00140905 0.00796743 0.00519743 
0.00917224 0.00173742 0.00425194 0.00418813 -0.00972035 -0.00460739 0.00417506 0.0207937 -0.0230551 
0.0263152 -0.0232435 0.00452079 0.00901102 0.00865301 0.0273881 0.0075088 0.0250327 0.000808128 
0.0241962 -0.00340546 -0.00966124 0.00411851 0.0106747 0.0180669 -0.00528567 0.00920754 0.00228937 
0.00276775 0.0196901 0.00535262 0.021113 0.050377 0.0862467 0.0160177 0.0145578 0.057773 
0.00405765 -0.0006674 0.00347404 0.000409004 0.00738703 -0.00306603 0.0213817 0.0135787 0.0209249 
0.00322997 0.00369296 -0.00474515 0.00553314 -0.0110028 -0.00248063 -0.00925089 -0.0101848 -0.018464 
-0.0200796 -0.0145926 -0.000614883 -0.0140596 -0.011673 0.0371158 0.00546451 0.025266 -0.00404221 
-0.00185865 -0.00323151 -0.00173009 -0.0109715 -0.00353625 0.0129473 0.00332317 -0.0152943 -0.00349887 
0.0118463 0.0110516 -0.00499578 0.0130081 -0.0162896 -0.0095172 0.0595385 -0.0177879 -0.00190542 
-0.0166875 0.0196848 -0.000569473 -0.00153671 0.015117 0.00102236 -0.0536357 0.000392549 -0.0263253 
0.00289961 -0.0444222 -0.00865407 0.00158535 0.00504233 0.00292773 0.00651533 0.0135721 0.0141283 
0.00184896 0.0248347 0.0303169 0.0248926 -0.0548306 -0.0123919 0.00700827 -0.0230942 -0.00688741 
0.000307989 0.00295309 0.0226438 0.0217863 0.0203549 -0.0343811 0.00973211 -0.0385251 0.00738586 
0.0031258 0.000115287 0.0286761 -0.00428778 0.0145158 -0.0110015 -0.00337371 -0.00507422 -0.00280924 
-0.0162246 -0.0158896 -0.00376226 -0.00597145 0.00632523 0.000589062 -0.000893323 0.0127803 0.000324175 
-0.0111608 -0.00387568 0.0013227 0.00295513 0.00404567 -0.00380005 -0.0079252 -0.0134265 -0.031067 
0.00765896 0.022184 0.0115291 -0.00490305 0.0145364 0.00356748 0.011847 0.00109559 0.00415615 
0.00615693 -0.00271348 -0.0707576 -0.0454366 0.0244796 -0.0435079 0.00709732 -0.00602796 0.0565258 
0.0277548 0.0342652 -0.011522 0.0251007 0.02661 0.00523601 0.133335 -0.0611728 0.0771614 
-0.0440858 0.0309011 0.0242286 0.0522801 0.0712897 0.0912316 0.0724421 0.0804474 -0.0546174 
-0.00713024 0.0330067 -0.00671984 0.0455878 -0.00465849 -0.00239059 -0.00116243 -0.00709113 -0.00284633 
0.00384167 -0.00723672 -0.000684514 -0.000128102 -0.00136506 -0.00841189 -0.00497718 -0.00134524 -0.00652272 
0.00298352 -0.0235806 0.00162527 0.00195486 -0.000996046 0.00908473 0.00469871 -0.00836922 0.0513572 
0.135404 0.0667389 0.0515773 0.00267886 0.00592515 -0.0184937 -0.000810811 -0.00211424 -0.00567959 
0.000771788 -0.00183536 -0.00188599 0.0111493 0.00664783 0.000926753 0.0046158 0.00883551 -0.0242494 
-0.00102432 -0.0271177 0.000563958 -0.00644751 0.0221322 -0.0239496 -0.0473051 -0.0434603 -0.0737128 
0.0128737 -0.0092201 -0.0125068 -0.0519082 -0.0175261 -0.0273427 0.0110402 -0.00295741 -0.0071633 
0.0225401 0.00446999 0.0244506 -0.0538533 -0.0137612 -0.0946807 -0.0283861 -0.0149499 -0.0282557 
0.000989897 0.0385556 -0.0443653 0.0134743 -0.0138574 -0.0075117 -0.00887984 -0.015378 -0.0119729 
-0.00219958 -0.00177633 0.00198008 -0.00158905 -0.00299197 -0.00160263 -0.003603 0.00190528 0.000201053 
0.000372301 -0.0123768 -0.0412775 0.0292959 -0.00743395 -0.0253956 -0.00598756 -0.0306145 -0.160075 
-0.0394068 0.0133612 0.0106527 0.00967206 0.00321885 -0.000783196 0.00591793 0.00919616 -0.000385437 
-0.0519598 -0.00541186 0.00520318 -0.00169045 -0.00354917 -0.00960244 0.00130266 0.0114026 -0.00634034 
0.0334919 0.0448213 0.0374305 -0.276355 0.0121181 -0.0572363 -0.00130601 0.0146058 0.0121673 
-0.00352553 0.00106201 0.00613766 0.00391667 -0.0045527 -0.00273657 0.0144527 -0.0275036 0.0310386 
-0.0111487 -0.00211895 -0.017656 -0.00715719 -0.0163015 -0.0350615 0.0132412 0.0656179 0.0204783 
-0.0275035 0.0224971 -0.0081427 -0.0517169 0.0084192 0.0169543 -0.00814235 -0.0110647 -0.00802566 
-0.0277562 -0.00102631 -0.0109116 -0.00939483 0.0134205 0.0689001 -0.0441683 0.00992925 0.0325991 
-0.0309737 0.0279345 0.0127044 0.0154112 0.0237669 -0.00246812 -0.000772802 -0.00383844 -0.00945877 
-0.011193 0.0104583 -0.00369714 -0.00377712 -0.00943855 -0.049415 0.12915 -0.00421762 -0.0206852 
-0.0303503 -0.0186812 0.00562289 0.00770081 0.00175001 0.00282697 0.00321814 0.0119133 0.00842245 
0.00672826 0.0132202 -0.0199578 -0.0184322 -0.0375328 -0.00252302 0.00794621 -0.00926033 0.0136508 
0.0250341 0.0398434 -0.0061834 0.0368722 0.0316508 0.00306233 0.00186513 0.010892 -0.00339015 
-0.0115483 -0.00305562 -0.0146256 -0.0165039 -0.00188935 -0.00239379 -0.00170269 -0.00599776 0.00126081 
0.00557414 -0.0798936 -0.0373385 -0.0636194 0.00555342 0.00651198 0.0332759 0.0216471 0.0402118 
0.0311047 0.0160548 -0.000394221 -0.0283784 -0.00056956 0.00551463 0.00763973 -0.0063207 -0.0129876 
0.00426497 -0.0320395 -0.0608336 -0.0273693 -0.0138401 0.00230762 -0.0138092 -0.010392 -0.0137481 
-0.0151006 -0.0296167 -0.0364788 -0.0248268 -0.0292466 0.00593239 -0.0079242 -0.000985877 0.0239151 
-0.0159077 -0.00392734 -0.00591021 -0.0185016 0.0024561 -0.0203208 0.0121113 -0.00365711 -0.00308457 
0.0118314 -0.0112795 0.0116963 0.0135204 0.00580933 -0.0023097 0.0116338 0.0116084 -0.0300044 
-0.0328373 -0.0448208 -0.0181797 0.00592106 -0.00705998 0.0207854 0.0238328 0.0153248 0.00755195 
0.0140501 0.00634718 0.0137446 0.00348367 -0.00109556 -0.00430333 0.0225143 -0.00156211 -0.00969358 
-0.0107275 -0.00838542 -0.0110648 0.00205498 0.000360375 -0.0126767 0.0151184 0.00845048 -0.00471944 
0.0226409 0.0105996 0.0248858 -0.0223272 -0.0411519 -0.0349923 -0.00796685 0.00788431 0.00682126 
0.000192811 -0.00228696 -0.000725103 -0.00354053 -0.0196327 -0.130578 0.0131702 0.0289128 0.0268128 
0.0245128 -0.00295792 -0.0245249 0.00590291 0.0594051 -0.017138 0.0014345 -0.00266673 0.012381 
0.00789232 0.00758955 -0.0116815 0.0431775 0.00342037 0.00315813 -0.0668357 -0.127334 -0.0757748 
0.0119862 -0.00541264 0.00592255 0.0214548 -0.0193227 0.0170798 0.00252052 0.0253018 0.013965 
0.0280003 -0.0173775 -0.00690622 -0.0115375 -0.020267 -0.0459264 -0.0766514 -0.0168448 -0.0111523 
0.0210152 -0.000314429 -0.0180159 0.00594671 0.00672464 0.00898091 -0.0014168 -0.00823999 0.0153131 
-0.00699864 0.0131859 0.0431185 0.061922 0.0519155 -0.0105674 -0.0210973 0.0252127 -0.00558181 
-0.00427686 -0.00715306 0.000177617 0.0149071 -0.000207226 0.011128 -0.0105654 -0.000614331 0.0498059 
-5.07835e-07 -8.76676e-06 0.000157864 2.78701e-05 -5.13305e-05 -0.00018934 -0.00447537 0.0119825 -0.00305451 
0.0109607 0.0226766 -0.0602683 0.00690739 -0.0181113 -0.00341281 -0.0133254 -0.00473968 -0.000674282 
-0.00312489 -0.00399006 -0.000673505 0.00578047 -0.0151552 0.0151894 -0.00315597 -0.00767738 0.00651754 
0.0158896 0.00822637 -0.0069085 -0.000939375 -0.0017338 -0.00630438 0.0102497 0.00327913 0.00910507 
-0.0027324 -0.000374401 0.00264041 0.000529639 0.00763643 0.00670264 0.00101251 -0.00031561 -0.00219276 
-0.0211326 0.0111438 0.0195317 0.0169564 0.0157587 0.014211 -0.0229015 0.0185452 -0.0249718 
0.0245058 0.0202104 0.0448498 0.0165729 0.101942 0.0641477 0.0104215 0.032691 -0.000550039 
-0.000175506 -0.00317486 -0.00291825 -0.00532573 -0.00460986 -0.00705137 -0.00220254 -0.00259275 0.00331481 
-0.00470318 0.00938573 0.00292893 0.000309566 0.0175333 0.0336085 -0.103876 -0.152963 0.0151217 
0.0371322 -0.0166559 -0.0157783 -0.0101826 0.00561628 0.0047635 -0.00822792 0.0129958 -0.00701627 
0.0397881 -0.00112646 -0.0103858 0.00540916 -0.00164408 -0.00168755 0.00282251 0.00239651 0.00397859 
0.00199991 0.0192226 -0.00237752 0.0339275 -0.00116243 0.002994 0.00746326 0.00430607 -0.000818809 
0.0053774 0.00426107 0.0127961 0.0157077 -0.0333693 -0.0548347 -0.0274543 0.0274439 0.0167347 
-0.0041441 0.0379085 0.0332674 0.0965516 -0.0018719 0.00419785 0.00175632 -0.00273866 0.00422205 
0.00954296 0.0102776 0.00511619 -0.00414997 0.00826214 0.00783974 0.00451386 0.0125774 0.0123 