# vtk DataFile Version 4.0
vtk output
ASCII
DATASET POLYDATA
POINTS 20482 float
-34.8981 -29.0439 63.4851 -35.7957 -27.398 64.5734 -35.7848 -28.1275 63.0272 
-34.5577 -29.7242 61.2996 -33.4699 -30.2704 63.6557 -34.3383 -29.1435 64.6891 
-23.7997 37.9223 45.0081 -23.8586 38.4148 44.2851 -23.9829 36.5655 43.8359 
-54.2488 1.09542 23.6209 -54.3192 1.62684 23.0871 -53.8386 0.253664 22.7214 
-54.3457 0.232002 23.7518 -8.03714 -16.0705 50.9051 -8.92866 -18.8362 49.0949 
-8.38498 -14.1978 50.3111 -28.6785 25.7617 15.5493 -28.2335 24.2921 13.8158 
-28.8327 25.0343 15.1879 -50.3013 -14.0166 3.80673 -48.34 -14.0838 3.19554 
-47.963 -16.1955 3.48432 -17.5534 -52.5181 7.89957 -19.424 -52.3994 6.14643 
-16.6555 -51.8597 7.74639 -50.1662 -9.71769 46.1373 -51.9423 -8.45687 47.336 
-50.7994 -9.21535 45.6471 -43.113 -35.7065 53.5403 -43.8277 -34.1326 52.5446 
-42.168 -36.3052 52.4915 -48.2044 -10.5073 45.1444 -10.992 -22.4857 69.8564 
-11.4274 -19.9368 70.7329 -12.3532 -20.0446 70.1807 -10.2548 -21.9832 70.4009 
-8.47139 51.5402 28.2642 -9.2793 49.6427 27.8032 -9.11348 49.7978 26.7955 
-3.68006 22.3093 64.7557 -3.67509 22.2556 62.9567 -3.71963 23.7804 63.8981 
-3.58313 20.7144 63.7305 -8.09998 51.3893 26.626 -36.7293 18.4405 40.1198 
-36.3789 18.7343 39.4259 -34.8047 14.7897 40.3738 -39.781 50.7118 21.8132 
-39.52 48.7202 21.2925 -38.7649 49.3635 22.4449 -34.504 14.9479 23.0443 
-33.6122 15.8903 24.3538 -33.7808 13.703 23.6047 -31.7366 -26.9615 21.7371 
-33.4201 -28.6401 21.389 -32.2193 -27.9088 22.5019 -32.5419 -27.3178 21.2535 
-60.7237 -38.8336 19.5441 -60.061 -38.8584 16.8162 -59.5852 -40.0315 19.3042 
-27.2634 -53.2959 38.9254 -26.9648 -54.5517 38.5463 -26.4821 -55.0951 39.684 
-44.2236 -59.5611 21.5154 -44.2945 -61.1892 23.0143 -43.2468 -59.495 23.0363 
-25.5417 -71.285 14.6632 -23.3942 -74.2498 12.7614 -24.0569 -73.6908 13.9666 
-25.489 -71.1749 13.4839 -2.81077 10.47 39.7579 -2.7732 8.29379 40.3503 
-2.66962 10.9825 39.4314 -9.25543 33.1924 1.22475 -9.05824 31.7023 0.485733 
-8.85559 33.0164 -0.507741 -32.4784 -16.9237 -0.182838 -32.9137 -15.9227 -0.785905 
-30.7668 -15.4255 -0.00922603 -33.5233 -17.9188 -0.431175 -43.8199 0.369641 3.79849 
-44.7397 2.88491 4.4311 -44.3714 -0.502018 4.98053 -22.905 16.3643 -9.8325 
-21.8055 17.3842 -11.2524 -23.5195 17.5699 -9.68629 -52.6167 -7.17375 -11.8054 
-52.8649 -8.45708 -12.1425 -53.3067 -8.76729 -11.3372 -52.5121 -7.17524 -12.4946 
-12.3252 -80.7745 -3.99014 -12.2944 -79.8049 -4.56278 -11.5434 -79.6577 -3.00863 
-36.5994 -53.2277 -16.1521 -34.4044 -53.645 -15.8602 -35.1216 -54.844 -16.2041 
-36.2327 -51.9702 -16.0742 -16.461 -45.5918 -7.22013 -17.3681 -43.8943 -7.28133 
-15.3672 -45.0605 -7.31607 -18.0469 -45.4438 -6.71862 -38.1232 -18.3865 52.8773 
-39.6168 -17.9448 54.223 -40.2312 -17.5654 51.5184 -32.6033 -31.2718 48.7784 
-33.4067 -32.5787 51.5455 -31.3024 -32.6474 49.9373 -27.0215 -13.6428 51.5727 
-25.3999 -14.0677 51.409 -26.76 -12.699 51.3972 -15.0616 55.9354 40.8696 
-13.8695 55.3325 42.5959 -13.5704 58.2359 40.9185 -15.6531 36.7263 57.7248 
-14.3818 37.4356 58.0166 -15.8917 38.4532 56.4993 -15.285 57.4699 40.0447 
-16.1956 56.2019 40.0964 -28.5596 46.2236 33.8235 -30.0224 47.4715 34.0911 
-28.5952 45.7014 35.4207 -60.9809 -14.4587 27.7571 -59.8906 -15.7156 27.5217 
-60.2828 -15.033 28.6925 -42.6951 -14.1477 24.7415 -42.3861 -14.9022 24.5019 
-44.627 -14.1394 23.9988 -51.267 -56.1317 32.2694 -51.5792 -56.0611 31.2544 
-50.6044 -57.5697 31.4423 -50.4756 -57.4206 32.8521 -51.0242 -55.4519 33.2655 
-5.99906 -74.9164 37.7907 -6.74112 -75.8125 37.0945 -5.60476 -74.7574 35.7986 
-20.8146 -66.4175 33.094 -20.8433 -67.7305 33.2292 -19.9003 -68.5625 34.695 
-4.86577 -73.8262 35.9919 -4.4735 -2.6971 49.1957 -3.30291 -3.81702 49.2821 
-4.1609 0.685829 48.8372 -6.67227 -25.4924 44.6564 -5.31693 -28.0753 45.0522 
-4.67141 -24.4183 45.4739 0.038715 26.3128 -0.254807 -0.244477 24.8178 -0.732826 
-0.141437 27.7627 -1.50519 -5.64301 -9.42361 -6.19656 -6.87046 -8.06483 -6.04236 
-5.48874 -7.32939 -5.16946 -7.60682 -9.94454 -6.69438 -33.4973 14.4904 1.10394 
-32.1543 13.8656 0.0921291 -33.8742 13.574 0.776027 -53.178 -6.35787 -1.74928 
-55.1321 -6.58463 -1.04618 -53.3651 -8.64356 -1.15313 -38.5715 -68.573 -16.1166 
-37.1118 -69.4716 -17.0352 -37.4255 -70.562 -16.9094 -37.9898 -67.4392 -16.1164 
-57.1185 -1.10347 37.5577 -57.6044 1.35372 37.9097 -57.5905 -0.439214 36.4933 
-37.2219 -3.96364 56.9866 -36.8728 -3.29665 55.8642 -37.8182 -3.62905 56.3484 
-37.4764 15.5286 55.1054 -38.611 13.8325 53.6934 -37.3845 13.2953 55.899 
-50.9006 -12.3964 38.3671 -53.7147 -10.5425 39.8801 -51.1948 -12.5616 39.7852 
-53.0301 -10.4853 37.9283 -56.5223 -2.32872 35.7424 -55.9477 -2.90085 36.7081 
-25.9423 -49.6343 53.0846 -28.9787 -50.6319 53.9284 -27.2743 -51.522 55.9549 
-31.0166 -43.6595 61.2832 -29.0069 -43.9344 60.5486 -29.054 -43.7381 62.2032 
-28.4629 -42.8435 42.9646 -29.1283 -41.8101 41.6454 -29.5554 -42.9666 42.777 
-37.1423 -34.7366 38.8327 -35.4945 -36.811 39.1013 -35.3738 -35.2101 38.6111 
-11.4095 -0.440649 68.4935 -9.81242 -1.47575 70.2264 -9.44938 1.10531 70.2563 
-3.14066 39.0941 15.2834 -1.97897 38.3919 16.1223 -2.35585 38.0879 14.9787 
-5.03275 37.7785 36.0095 -2.86644 37.3798 35.7107 -4.3545 38.839 34.9688 
-3.46357 36.609 36.9307 -5.38234 41.7505 46.9552 -5.39333 41.2406 46.1296 
-5.34067 43.012 45.532 -6.09778 3.72544 56.9348 -5.77488 1.71656 57.3254 
-6.28306 3.27813 55.8934 -43.8418 33.4791 7.29956 -42.8551 33.235 6.9107 
-43.9401 32.057 7.57515 -23.0073 45.0875 12.2442 -23.8495 43.7003 11.4668 
-24.3414 44.1814 12.0851 -22.8905 44.7135 11.0404 -17.66 60.2689 22.0364 
-17.042 59.167 21.1563 -18.2854 58.6064 21.8902 -1.51464 54.1274 6.97406 
-1.70881 52.2949 4.1671 -2.11115 55.1049 5.46006 -1.18169 50.9263 5.39625 
-41.0281 5.95921 33.2155 -42.648 6.54824 31.7501 -41.7561 5.65892 32.5885 
-51.6833 19.8697 34.3445 -52.2139 18.6529 33.6594 -51.2618 18.8624 35.1364 
-52.5192 19.9562 32.4696 -35.5488 35.94 32.2432 -36.2178 33.4655 32.6431 
-36.1206 34.3677 33.0414 -49.0468 30.474 18.5945 -49.7014 29.5978 19.4291 
-50.5411 31.128 19.1923 -47.5925 29.3043 19.3071 -44.6238 32.0119 8.30552 
-44.7519 33.4849 7.93634 -37.7673 -16.9338 10.3384 -39.0259 -15.5066 9.10021 
-40.2131 -14.1059 9.98908 -33.4025 -9.04666 24.8631 -32.8485 -9.99518 24.7651 
-33.381 -10.6503 25.444 -37.822 -1.51624 17.3482 -36.4238 -3.24492 16.6337 
-37.1297 -2.61142 18.666 -37.0233 -2.04424 15.2824 -29.2104 22.903 26.2367 
-29.2418 22.297 25.3353 -29.3034 20.2653 26.1721 -29.122 24.3343 24.7752 
-52.6578 -33.4899 44.852 -52.9802 -35.3034 45.2766 -51.7716 -35.4412 45.4867 
-48.4839 -19.1066 14.4265 -52.394 -15.5696 14.3274 -50.5975 -19.1761 15.0337 
-41.8678 -67.0361 11.2775 -42.7643 -66.4789 10.4515 -42.3822 -66.9138 9.74372 
-58.8638 -27.684 8.88439 -60.0831 -26.388 8.57137 -56.8664 -28.0274 8.93267 
-27.6993 -66.2401 33.6622 -25.8842 -64.3133 31.9738 -26.7956 -65.6446 34.6002 
-28.093 -66.3169 32.6993 -40.1738 -63.3792 38.5881 -39.2192 -63.563 38.373 
-38.8062 -62.5243 38.1198 -33.9773 -78.6734 22.0061 -32.9063 -78.3648 22.6954 
-34.1921 -78.0197 23.2875 -32.7847 -78.7257 21.3028 -33.7992 -79.1196 20.6516 
-41.1765 -67.6545 10.5112 -17.9267 -58.4898 18.5157 -19.4908 -58.1938 16.5802 
-18.9938 -56.3341 16.4041 -1.90073 -69.692 17.6529 -1.48076 -68.397 16.6419 
-2.82014 -68.1224 18.1413 -1.45135 -69.949 15.6761 -16.3744 -84.0493 28.3317 
-14.7248 -84.1749 28.0141 -15.6602 -83.2665 29.2665 -13.0205 -87.4771 5.82975 
-12.3181 -85.128 5.36606 -12.6216 -85.6226 6.24923 -11.87 -85.158 4.60749 
-12.2841 -87.7264 4.58685 -29.5835 -80.7285 2.55914 -28.8982 -80.4949 1.62613 
-29.07 -82.0013 2.71581 -6.87791 -42.3295 41.8527 -7.71296 -41.4348 41.7213 
-9.1894 -41.0422 41.5094 -5.65899 -57.2434 37.8138 -5.40844 -56.3665 37.7957 
-5.35625 -57.89 39.0533 -7.51087 -51.836 26.8792 -8.5097 -51.443 28.0683 
-8.55895 -52.0831 28.8841 -17.4938 -57.161 17.7891 0.93115 -34.3034 23.0429 
0.843534 -32.1028 24.4007 0.664234 -32.7148 25.2589 1.01675 -33.8771 21.8181 
-0.713158 -45.9125 17.9576 -0.828278 -44.9699 16.7433 -0.501424 -44.6319 18.3611 
-1.31535 -46.5356 17.1738 -26.0237 31.9576 1.25981 -26.4521 29.0642 -0.642873 
-27.9136 31.2701 0.632011 -13.523 4.27836 3.65853 -15.5381 3.15971 3.63969 
-13.8807 5.17223 3.90447 -31.8678 -1.09107 -10.0414 -32.5931 -0.320329 -9.77843 
-33.9557 -2.39204 -8.56853 -19.315 -10.6585 -7.03164 -18.1349 -10.1973 -8.09475 
-20.2374 -9.78147 -6.54467 -17.548 -11.2553 -8.84464 -59.1504 1.85438 8.29862 
-57.5254 1.0161 6.36655 -58.6536 0.68479 7.32401 -47.5146 9.39898 -6.62174 
-48.039 7.90394 -6.40658 -47.1863 8.45501 -6.08688 -48.7579 9.61064 -6.7439 
-38.7581 19.9326 -2.34702 -39.2884 21.9324 -1.45356 -40.2946 18.4722 -1.46728 
-40.8913 12.6931 -19.7069 -41.4673 12.6429 -18.7094 -40.4758 13.7097 -19.1134 
-41.9786 11.7129 -19.2682 -41.4502 11.9983 -20.5383 -39.7265 -57.0657 0.349019 
-39.9914 -58.7641 -0.900796 -39.47 -58.2671 0.280953 -44.3556 -49.2557 -9.03917 
-43.2509 -49.8208 -8.39264 -44.3784 -50.8083 -8.19684 -57.6582 -26.4943 -7.43101 
-56.9212 -27.9292 -7.55441 -57.0185 -28.1786 -6.50408 -40.7582 -7.83754 -16.3877 
-40.554 -10.5246 -14.5048 -41.2478 -9.60863 -16.3963 -39.957 -7.50141 -14.2289 
-10.596 -66.6468 7.64524 -11.574 -65.4194 7.10726 -11.7785 -64.8484 7.69254 
-4.41393 -65.4178 -4.11845 -3.20313 -63.5255 -2.01208 -3.04975 -64.8176 -3.94225 
-4.44568 -63.891 -2.63388 -16.4903 -73.8299 -12.0851 -14.6685 -74.5397 -12.1465 
-15.562 -74.696 -11.9171 -24.0048 -54.3239 -6.49481 -23.1494 -55.1501 -6.61254 
-21.9447 -59.3135 -6.51969 -32.012 -33.6201 -15.4833 -30.0078 -33.4093 -14.7516 
-30.602 -35.1272 -14.6855 -31.5623 -31.5463 -15.5689 -23.4669 -22.7824 -0.464875 
-25.4008 -22.642 -0.754282 -24.7965 -24.6051 0.263144 -37.5449 -21.4248 58.4662 
-38.4236 -20.2836 59.2081 -37.3575 -20.542 57.5113 -31.5822 -30.8713 52.8084 
-32.6125 -30.2211 52.1865 -30.3716 -30.5952 49.7574 -35.7478 -21.9286 56.0225 
-37.5342 -22.287 58.8173 -29.4906 -30.8373 50.3099 -30.6636 -31.2515 53.7254 
[...]
POINT_DATA 20482
SCALARS Gauss_Curvature double
LOOKUP_TABLE default
0.0119228 0.0129744 0.010627 0.00527555 0.0057026 0.011672 0.0180049 0.00790435 0.0198923 
0.0558464 -0.014689 -0.0246611 0.052748 0.0120523 -0.00698235 -0.0082889 -0.0709315 0.0432741 
-0.0812472 -0.00346828 -0.00321226 -0.00188398 -0.0137672 -0.0409996 -0.00695205 -0.00120235 0.00316771 
-0.00434101 0.00611461 0.00382242 0.00244715 0.000376693 -0.013368 0.00833383 0.00580787 -0.0197398 
-6.23401e-05 -0.0107354 -0.00778104 0.00523339 0.00233488 -0.00458635 0.00568291 -0.0030062 -0.0134326 
-0.0221111 -0.00614725 -0.00986791 -0.00294451 -0.00985022 -0.00286074 -0.00423867 0.00444977 0.0184295 
-0.0389905 0.079324 -0.0325604 0.00837744 0.00816407 0.00501882 -0.028421 0.02656 0.0309119 
-0.00133226 -0.0033646 -0.00334409 -0.0104743 -0.00488017 -0.00319907 -0.00393311 -0.0502617 0.00789735 
0.00859014 0.00225101 0.00294673 0.0102452 0.00329001 0.00345466 -0.000219523 -0.000417957 0.000242733 
0.000382946 0.000845814 -0.00623794 0.000489396 0.000548801 -0.0868032 -0.0594045 -0.0753428 -0.0565047 
0.022434 0.0303896 0.0601477 -0.00753081 -0.00379 -0.0050936 -0.00291889 0.00183071 0.00435451 
-0.000164568 -0.00291996 -0.00262351 -0.00490505 0.000137379 0.0118086 0.000754398 0.00124282 -0.0106783 
0.0263776 -0.0260494 0.0216854 -0.00320636 -0.00992972 0.00721699 0.000282847 0.00657568 -0.00300302 
0.0451564 0.00789952 -0.00165637 -0.00344287 0.0203852 0.0151995 0.0113757 -0.0221899 -0.0115645 
-0.0249992 0.00781203 0.00711844 0.00879379 0.0135493 0.0129437 0.00664244 0.0268758 0.00966228 
-0.00207921 -0.00238695 -0.00564347 0.00656566 -0.000535826 0.000233075 9.28082e-05 -0.00180566 0.00553842 
-0.00728563 0.0137616 0.0191007 0.0194648 0.00744874 0.0140447 0.0370748 0.0029406 -0.021252 
-0.0776841 -0.045937 -0.00161651 -0.000980873 -0.00104322 0.0218369 0.0120403 0.0227989 0.0141755 
-0.00585883 0.0067551 0.00358835 -0.14011 -0.0870719 -0.04805 -0.0138246 -0.00768019 0.00394602 
0.00586466 -0.00116068 0.00142913 -0.00297613 -0.00740155 -0.0097671 0.000883158 -0.00605114 0.00506367 
0.00701786 0.00868346 0.0155706 0.0267481 0.0132643 -0.00286898 0.00487643 -0.00316275 0.00744635 
0.0115047 -0.00133413 -0.00640001 0.0167972 0.0162282 0.0173245 0.00403428 0.00990182 0.0166332 
0.0206791 -0.000903135 -0.000685183 0.00810402 -0.00582808 0.00243311 -0.010056 0.00908141 -0.00566786 
0.00751097 0.0314489 -0.0459316 -0.0413188 -0.00303394 -0.00518636 -0.00653341 -0.0201076 0.00313271 
-0.00651073 0.00269422 -0.000711061 -0.0484576 -0.0472659 -0.0552098 0.00770215 0.00425195 -0.00226399 
0.00595274 0.0496476 0.0600577 -0.0153372 0.00442605 0.0264692 0.0178627 0.0033075 0.00104888 
-0.000918903 0.00299469 0.00947881 0.00116172 -0.0517937 0.0535381 -0.00764437 0.0168866 -0.0178219 
0.0062892 -0.0487094 0.0201068 -0.00415265 -0.00804963 0.0130611 0.0182777 0.0249289 0.0123698 
7.80104e-05 -0.000925874 0.000516871 -0.103125 -0.0454341 -0.0669072 -0.00354574 -0.00388503 0.00106117 
-0.00385946 -0.00342374 -0.0252918 -0.00538229 0.00411031 -0.012496 -0.0117574 0.0282729 0.00892438 
-0.00402079 0.0390245 0.0410873 -0.0970664 -0.0353279 0.0193475 0.0206964 0.00573434 0.00489612 
0.0206016 -0.011302 0.0193041 0.0129969 0.00523052 -0.0604571 0.105861 0.00557171 0.0595095 
-0.00867681 -0.00400192 0.0028316 0.0089997 -0.0143887 -0.0109052 -0.00676068 0.0077529 -0.0419807 
-0.00514272 0.00164951 0.0276456 0.0155596 -0.0291171 0.00665158 0.00155011 0.00537454 0.00247628 
0.00543216 7.92595e-06 0.00310588 -0.00912313 0.00420651 0.00114873 0.00311805 -0.00743816 -0.000257068 
0.00848443 0.0317967 0.0437082 0.0310503 -0.00838219 -0.00330088 -0.0141198 -0.00888158 -0.00256266 
-0.00790748 -0.0173368 -0.0442452 -0.00137668 -0.0632234 -0.00369049 -0.00112647 0.00350912 -0.00272617 
-0.0345866 -0.0294998 -0.0221222 -0.0282533 -0.0121982 0.0392933 0.01399 0.0397384 -0.0140771 
-0.00949732 -0.00626702 -0.0470587 -0.0686904 -0.0060157 -0.00394205 -0.00237435 -0.00482831 0.00535869 
-0.00771761 -0.0951561 -0.0199463 0.0144251 -0.0137751 -0.00806978 -0.0190868 0.145755 0.0157846 
0.124593 -0.017153 -0.0171231 0.0324593 -0.000926828 0.000793343 0.00125429 -0.00247358 -0.000524132 
-0.00184801 -0.00422627 -0.0111719 -0.0197985 -0.0109774 0.00744571 0.00901496 -0.0222548 0.00512857 
-0.00794976 -0.012139 0.00345992 -0.00622155 0.0207403 0.00682984 -0.0104818 -0.00455013 0.0324347 
0.0218082 0.0218805 0.0158755 -0.0215525 0.0388737 -0.0215944 -0.103444 -0.162652 -0.218942 
0.0136496 0.00723847 0.0283558 -0.0116369 0.00679243 0.0223631 0.0127781 0.0147067 0.0390952 
0.0436509 0.0382169 -0.00866213 -0.00583191 -0.00466634 -0.00815023 -0.0111479 -0.000673641 0.00504471 
0.00860767 0.0128783 -0.0636708 -0.0237817 -0.0360907 -0.0456093 0.0116197 -0.0167656 -0.00336478 
-0.0018372 -0.0470212 -0.0457397 -0.00836555 0.015289 -0.00302718 -0.0125639 0.0229025 -0.0174186 
0.025171 0.0198885 -0.0187332 0.0148456 -0.00183441 -0.00227093 -0.00195886 0.0949871 0.147747 
0.32495 0.068669 0.049422 0.0418657 0.0474721 0.00611858 -0.0114428 -0.0119582 0.0108978 
0.0385979 0.0676329 -0.0383122 0.0212795 0.00426045 0.0211348 0.0040254 0.0036882 -0.00932914 
-0.000448776 0.00418935 -0.00179624 -0.0055435 -0.00783284 0.00842614 -0.00062232 0.00803726 -0.0108393 
0.0011153 -0.0183314 -0.0112391 -0.0258918 -0.00619385 0.000340625 0.0095337 0.0196115 0.00689317 
-0.0138606 -0.00504475 0.00215741 0.0011328 -0.00710125 -0.00804167 0.0198436 -0.000365873 0.00731777 
-0.00548276 0.00427504 -0.00879802 0.00893575 0.0203243 0.00798256 0.00232179 0.00872965 0.00722998 
0.0054558 -0.00520072 0.00905408 -0.0221618 0.0170525 0.0212569 -0.00207175 -0.00647073 -0.00440169 
0.0212014 0.0795385 -0.00129777 0.00117343 -0.00333876 4.04626e-05 -0.0350443 0.0106323 0.00327682 
-0.00410813 0.000620312 0.00448759 0.00126939 0.0108363 0.0112042 0.0215904 0.0137771 0.0114428 
-0.00582634 0.015551 -0.00187489 0.0204992 0.00263904 -0.00827848 -0.00651263 0.0186459 0.0399374 
-0.072339 -0.123002 -0.00958949 -0.127715 0.0019782 -0.00265915 -0.00226752 0.00833186 0.00664051 
0.00263395 0.0159758 -0.00769004 -0.00689096 0.0100693 -0.00764887 -0.0164927 -0.012623 0.0267573 
0.0089075 -0.000604945 0.00924907 -0.00197186 0.00326949 0.00968852 0.00365828 0.00259267 0.00388612 
-0.00431822 -0.00250464 -0.00287539 -0.00799791 0.00104904 0.00575614 0.0505352 -0.000488183 -7.94469e-05 
0.000123763 9.06473e-05 -2.44721e-05 -0.000239153 -9.73301e-05 0.0328652 0.0183134 0.00213279 0.0376957 
-0.00648712 -0.00275551 8.63707e-05 0.00142886 0.00493144 0.00455272 0.0236047 -0.00218871 0.00665254 
-0.00133231 0.0128993 0.00942347 0.0127832 0.00361385 0.0105158 -0.0137682 -0.00676234 0.0163396 
-0.00245136 -0.00489909 -0.0203727 0.000818647 -0.0241194 0.00792016 0.0200483 0.0103233 0.017806 
0.000694179 0.00440503 -0.000325292 -0.000623364 -0.00912983 -0.00961284 -0.00877846 0.000663767 -0.0278307 
-0.013357 -0.022368 -0.000971202 -0.00257246 0.000575947 -0.00929353 0.0180686 0.00606517 0.0247876 
-0.00839792 -0.0054645 -0.00219004 -0.0258015 -0.0243856 0.00339087 0.00753571 0.00380676 0.0221581 
-0.035622 -0.0520696 -0.0110689 0.0117332 0.0164863 0.0220875 0.00171568 0.00515205 0.000499818 
-0.00203304 -0.00503081 -0.00199068 9.57885e-06 0.00988352 0.0683557 0.0368113 -0.012077 -0.00132065 
0.00125256 -0.00112331 -0.00895522 -0.0229358 -0.0236961 -0.00655988 0.00402116 -0.00469818 -0.0153655 
-0.00598883 -0.028461 -0.0153612 0.00723252 0.000960739 0.0027686 -0.0136499 -0.0161491 -0.00731204 
-0.035488 0.0181552 0.00553022 -0.025176 0.00586598 -0.0187923 -0.0129793 0.00129815 0.00305152 
0.00684364 0.0028274 0.00665698 0.00509824 0.00123566 4.37231e-05 0.00292584 0.00177792 0.0172559 
0.00239038 0.0184776 0.0106015 0.0644419 0.0269752 0.0288181 0.00203647 0.00679689 -0.00267199 
-0.00154885 0.0189468 -0.0218648 0.00995686 0.0250166 0.0247702 -0.00639515 -0.019315 0.0248327 
-0.0156946 -0.00970932 -0.0112715 0.0299157 -0.00462612 -0.0236284 -0.017944 -0.044655 -0.0309751 
-0.0106292 0.0118877 -0.00955867 -0.00495562 -0.00667191 0.00753046 0.0082724 0.0052019 0.0109412 
0.00119378 -0.0153763 -0.00620258 0.0138964 -0.00242043 0.00951509 -0.00853911 -0.0759717 -0.167856 
-0.0373364 -0.0718363 -0.0141325 0.000254232 -0.00319084 0.00152776 0.00699637 -0.0265008 0.0142013 
-0.0384624 -0.0145165 -0.00832813 0.00619021 -0.0227482 -0.00469201 -0.0162994 -0.0168184 -0.0106955 
-0.00971216 0.000965711 0.00993228 0.00497525 0.00290329 0.0252033 -0.00218737 0.00590949 -0.0091815 
0.0102673 -0.00380324 -0.00487563 -0.0101257 -0.0185321 -0.00151499 -0.0122317 -0.00422619 -0.00298932 
0.00519208 0.00576507 0.0021537 -0.00166434 0.00298197 -0.000506991 0.00190739 -0.00340063 0.00535363 
0.00118364 -0.000595555 -0.00104583 -0.0899962 -0.0998851 -0.0185111 -0.0145272 0.0256073 0.011797 
-0.00213758 -0.00922135 -0.0131844 -0.00869181 -0.00286789 0.00163173 -0.0154015 -0.00962312 -0.0232348 
-0.0203405 -0.036908 0.00631954 -0.00562038 -0.00439097 0.00631877 -0.000909571 -0.00091639 -0.00116075 
-0.000899712 0.00995458 -0.00175394 0.00140402 -0.000891863 0.00644435 0.0115308 -0.00477082 -0.0120047 
-0.0266879 0.0045311 0.00648156 0.0188867 -0.0013966 0.00999812 0.00359227 0.0162087 0.0135732 
-0.0306885 -0.0205449 -0.0333573 0.00230864 0.020887 -0.00234602 0.00251239 0.0229975 0.235222 
0.0230792 0.0865108 0.0117092 0.00339583 0.00322831 -0.00446049 -0.00664669 -0.00526648 -0.000684886 
-0.00389853 -0.0108081 0.00770853 -0.00942015 -0.00806094 0.00336142 -0.00250212 0.000104064 0.00524084 
0.00622681 -0.0031368 0.0217164 -0.0300212 0.0110188 -0.0431904 -0.0218081 -0.0434403 -0.0289148 
-0.0115087 -0.000191425 -0.00451355 -0.00891735 -0.00138149 -0.00949271 -0.0392458 -0.0474049 -0.0538835 
0.0137136 0.0193169 0.0222539 0.0118468 0.0139946 0.0169358 0.00372839 -0.00366456 -0.00223003 
-0.00324834 0.00847331 0.00169038 -0.00340254 -0.000842402 0.00117758 0.0223833 0.0104151 0.0211447 
0.0066873 0.0343276 0.0450383 0.00597067 0.0537026 0.0287721 -0.0210973 0.0130123 -0.0116814 
-0.0350402 -0.0206199 0.0179955 0.0130597 0.0169332 0.036082 0.0217401 0.000947798 0.0442384 
-0.00396831 -0.0153688 -0.0182916 -0.0012972 0.00330347 0.00233564 -0.00502224 0.00237568 -0.00436748 
-0.045953 -0.0216619 -0.0135228 -0.0176976 0.0239993 0.0214612 -0.055268 0.0212957 0.0119136 
0.0117259 0.0237739 0.0189033 0.0125396 0.0108824 0.0121527 0.00938738 -0.0871916 -0.24996 
-0.0276914 0.00461441 -0.000715354 0.00676785 -0.00957628 -0.010629 -0.0115262 0.0127602 0.00564183 
0.0115511 -0.0640717 -0.00793605 -0.00335408 -0.00162983 0.00495304 0.00862107 0.00498554 -0.00689338 
-0.00667445 0.0119376 0.0193583 0.005364 0.0138206 0.020847 0.0222453 0.0211712 -0.00459636 
0.00837408 -0.0109916 0.0107664 -0.00262943 -5.11127e-05 5.40398e-05 0.00578608 0.00555214 -0.00911935 
-0.00359338 -0.00298042 -0.00514079 -0.00067373 0.0277429 0.0175689 0.0184865 0.00529611 0.0350326 
0.027151 0.0110916 0.003576 0.016644 0.0152526 -0.00208999 0.00845883 0.00183807 0.0118236 
-0.0137412 -0.006944 -0.0168183 -0.00185719 0.00131132 -0.00247845 0.00202246 -0.0019926 -0.00342281 
-0.00375208 0.00184329 0.00616937 0.00325477 0.0129563 0.00856569 0.0142663 -0.0280914 0.000590822 
-0.0100333 -0.0191024 -0.00221098 -0.00364486 -0.00140366 0.00140121 -0.00596251 0.00889047 -0.00368273 
-0.000120438 -0.027081 -0.0182492 -0.0146192 0.0151087 0.0160422 -0.0143149 0.0172674 0.0316962 
0.0458373 0.0192031 -0.0488761 0.119716 -0.0191877 -0.00420882 -0.0010357 -0.00351839 -0.00493183 
-0.00050163 -0.0247524 -0.0154152 -0.00181928 -0.00371187 -0.00124895 -0.00313815 -0.0275071 -0.0416122 
-0.0454198 0.00245014 -0.00141598 -0.000233949 0.00415071 0.0487681 0.0448879 0.00494433 -0.00397091 
-0.012354 -0.00827071 -0.0129316 -0.0139296 -0.0113996 -0.000454636 -0.00582973 0.00912219 0.00714972 
-0.000798186 0.00173865 -0.00885136 -0.0289751 -0.0125461 -0.00332043 -0.0263928 -0.00151739 0.00600345 
0.00197961 0.0222417 0.000749889 -0.00193221 0.00227225 -0.00571432 -0.00893271 -0.00902205 -0.00759788 
-0.0157037 -0.00830817 -0.0111834 -0.00787783 -0.0137137 -0.0115017 -0.0302513 -0.00571167 -0.0157204 
0.0243182 0.00799686 0.0107192 0.0124668 -0.0126846 -0.010718 -0.0107394 -0.00657584 0.00455788 
-0.00030769 0.00100344 -0.00446808 -0.00534803 0.00154837 -0.00496853 -0.00327725 -0.00252394 -0.00166684 
-0.0137133 -0.0231025 0.029713 -0.00414978 0.0105425 0.0042791 0.00609369 -0.0293579 -0.0174013 
-0.0257661 0.0167108 0.0302595 0.0213143 -0.0351704 0.0034466 0.00699032 -0.00928396 0.0261828 
-0.00389103 -0.00650449 -0.014147 -0.00688114 0.00416202 -0.00428092 0.00636073 -0.0104235 -0.0042932 
-0.00675424 -0.0043149 -0.0135334 -0.00687104 -0.0126358 -0.00881325 -0.00118173 0.00335824 0.0267695 
0.00525277 0.0314216 2.04001e-05 0.0325651 0.0240304 0.0207103 -0.021252 -0.0298714 -0.0271838 
0.00614362 0.00355493 -0.00921923 0.0013733 -0.000341298 0.000855723 0.0177948 0.0106688 -0.0130495 
0.0230695 -0.000391584 -0.000313757 -0.000932987 0.00114947 0.0591024 -0.0698624 -0.0222586 0.0108731 
0.014213 0.0887934 -0.00143308 -0.00328514 0.00227623 0.00347068 0.0140992 -0.0123952 -0.0058713 
0.0274179 -0.0217066 -0.0444566 -0.0150692 -0.0476466 -0.00916961 0.00560452 0.00333249 -0.00689535 
0.0243512 -0.0231289 0.0204717 -0.00181768 0.0169103 0.00544405 0.0183089 -0.00748567 -0.00648392 
0.0150093 -0.000311659 -0.00212427 0.0491004 -0.0229718 -0.0138761 0.00668984 0.00484219 -0.0147861 
0.0179541 0.00273642 -0.0100182 -0.00456845 0.0282996 0.012147 0.0104692 0.0224395 0.013636 
0.0101018 -0.00250859 -0.0189769 0.0333165 -0.0574779 -0.018523 -0.0180657 0.0132994 -0.0140242 
-0.0269462 -0.0143949 -0.0016161 0.00778668 0.00345227 0.00561306 0.00895175 0.0105276 0.0102205 
-0.0121201 0.00773449 -0.0258368 -0.0223735 0.0247557 0.00956744 0.0157616 0.00199964 0.0144664 
0.0128416 0.012696 -0.00466383 0.00304463 0.010048 -0.0219834 -0.00160628 -0.0243829 -0.00840955 
-0.0111466 0.0129 0.0857944 0.0190022 0.0619004 0.0058817 -0.0549562 -0.0182155 -0.0240667 
-0.00054733 -0.0187659 0.000249592 -0.00512653 0.0184091 -0.011547 -0.00166674 0.0191688 0.0161075 
-0.0104078 -0.00239777 0.0268131 -0.00331689 -0.00502331 -0.00540943 -0.0022328 -0.000755508 -0.000922716 
-0.0457388 -0.015514 -0.0324836 0.0328186 0.0155158 0.0298973 0.0275361 -0.127802 0.0125291 
-0.0200414 -0.00790071 -0.00943861 0.0418229 0.0057181 -0.0252358 -0.0432108 -0.00422546 -0.0563171 
-0.0135756 0.0558785 -0.0378031 0.00559314 0.0199743 0.0109079 -0.0357627 -0.0201927 -0.0134754 
-0.00518311 0.0147832 -0.00445868 -0.0234443 0.0084401 0.00447446 0.0146811 -0.047917 0.0310342 
-0.0202359 -0.0225035 0.00968997 0.0126635 0.00878277 -0.0032633 0.00337244 0.00351668 0.00174694 
0.00514904 0.00232653 0.00516599 0.00423432 0.0050039 0.00043011 -0.00490295 0.00547783 0.00915663 
-0.00294937 0.0057742 -4.05725e-05 0.0010971 0.00186058 0.00131007 0.00215534 0.00147163 -0.00205006 
0.00492395 -0.000554872 -0.00305426 -0.000737534 -0.00380876 0.0019005 0.00377948 0.00708797 0.0167197 
-0.00294458 0.00295906 0.00407052 0.00340858 0.00289495 0.0163637 0.00609506 0.0101281 0.0979132 
0.0873627 0.0818123 0.0820561 0.00207879 0.0131564 0.0286814 0.0091952 -0.00670953 0.0307721 
0.00691814 -0.0137206 -0.000301522 -0.0316697 -0.0328879 -0.0552878 -0.0636795 0.0137127 0.0165363 
-0.00423167 -0.0145505 -0.00804363 -0.00182344 -0.0260351 -0.0313388 -0.014231 -0.0117657 0.00388001 
-0.00856393 0.0110856 0.00790605 -0.0113684 0.00452339 0.0220814 0.025015 0.041087 0.00166481 
0.00239323 0.0103147 0.000172038 -0.00048913 0.00221506 0.0235646 0.0324532 0.0280907 0.0320802 
0.0176941 -0.0175762 -0.00743184 -0.0100458 -0.0459738 0.0167428 0.0229061 0.00526073 -0.00800096 
-0.000483236 -0.00216678 -0.0246109 0.025226 0.0572777 0.000108311 -0.0401014 -0.038011 -0.0103937 
0.00160929 -0.0223127 -0.0535863 -0.00980888 0.00966719 -0.044434 -0.0114744 0.0362659 0.00946733 
0.00571615 0.00907686 0.00288136 0.00302465 0.00547393 0.00452461 0.00375253 0.0034687 0.00476236 
0.00273843 0.0196449 0.0102873 0.00311415 0.0502347 0.00695162 0.00259271 0.00205709 0.0132324 
0.00838394 0.0268806 0.00357618 -0.00774793 -0.012879 -0.0102522 -0.00225825 -0.00551959 -0.00510606 
-0.00381327 0.00699203 -0.00994257 0.0701018 0.120314 0.0486962 0.0509221 0.0141789 -0.00381299 
0.00319972 -0.00392387 -0.00678131 0.00484628 -0.00499334 0.00506216 0.00729343 0.00247526 -0.00322825 
0.014965 0.00613166 -0.00123242 0.000949103 0.00242108 0.00566362 0.00214801 0.00233115 0.00127198 
0.000984647 0.00316645 0.00165827 0.010515 0.0122195 0.00318634 -0.0143649 -0.00395858 0.00307541 
0.0182567 0.0207713 -0.0221086 0.0563571 0.0102458 -0.00045467 -0.00853671 0.0479748 -0.00720888 
0.0600626 -0.0236009 0.0220701 0.0136723 -0.0740204 -0.0131977 -0.0370663 -0.0338254 -0.0137121 
-0.0142007 -0.00341256 -0.107649 -0.0975829 -0.0821392 0.0175058 -0.0194373 0.0132621 -0.00828925 
0.00733836 -0.0024437 0.0267075 0.029023 0.0262064 0.0086978 0.0213329 -0.00501186 -0.00428717 
0.0680662 0.0592287 0.0114351 0.00548407 -0.00748036 -0.00958988 0.0127963 -0.00510888 -0.00300004 
-0.0109211 0.00581712 -0.0012467 0.000129859 0.00389419 -0.0239314 -0.0325398 0.0188433 -0.0162414 
-0.00126321 0.00148762 0.0102423 -0.0131458 -0.00943082 0.00260226 -0.00425234 0.00267362 -0.00298593 
-0.00392315 -0.0036727 -0.00140049 -0.000525031 -0.00258409 0.000120565 -0.000536518 -0.0156176 -0.00727198 
0.0143678 0.00316792 -0.0086193 -0.00323645 0.0275145 0.0267189 0.00334723 -0.00133161 -0.0247097 
-0.0194733 -0.00836177 0.0208677 0.0112278 0.0138425 0.00705176 0.0279818 -0.00187213 0.0626941 
-0.00881858 -0.0101658 0.00222085 0.0166691 0.0159139 0.0254217 0.0474858 -0.039488 0.0569587 
0.0136626 -0.00998592 0.0343098 0.00799085 0.00280552 0.00102159 0.00356873 -0.00804438 0.00943443 
-0.0264829 -0.00530714 -0.00586191 0.0112619 -0.0103936 -0.00977459 0.0169478 0.0128067 -0.00269982 
-0.00491913 0.0101937 0.0052741 -0.0223661 -0.000667244 0.0175747 -0.0184004 0.000271419 0.0017688 
-0.0132887 -0.00685745 -0.00716795 -0.0335313 0.0223151 0.0108085 -0.0697898 -0.00653891 0.0111824 
-0.00419845 0.203415 0.0904865 0.0677242 0.0182781 0.0235854 0.051129 0.0333832 0.0487384 
0.0493707 -0.00587419 0.0141908 0.00632148 0.00959157 0.00636967 0.0108919 0.00195442 0.00103712 
0.0100677 -0.00209744 0.00499253 -0.000279795 0.0173549 0.00108842 0.0199063 -0.0135817 -0.0142506 
0.0195595 0.047293 0.0205709 0.0378267 0.0251123 -0.00385019 0.00774542 -0.0355312 -0.00125887 
-0.00156616 0.00476931 -0.00855293 -0.019409 -0.00810396 -0.00712416 -0.00760743 -0.0053501 0.00238957 
-0.000889652 0.0305982 0.0538299 0.0219696 0.00409499 0.0520096 0.0384751 -0.00430879 -0.010082 
-0.000946451 -0.00221933 -0.00143441 -0.000833161 -0.0125852 -0.000735724 0.00567822 0.00169353 0.00165296 
0.00141253 0.00140837 0.0272722 0.0147908 -0.0109317 -0.00173835 -0.000602896 -0.000377897 0.0215337 
0.0225125 0.0300684 0.0256844 -0.00150946 -0.00286679 -0.00243011 0.0108818 0.0324128 0.00904338 
0.0176571 -0.00161485 -0.00107507 -0.00490774 0.00230623 0.00188351 0.00508204 -0.00156319 0.00891825 
0.0110445 0.00957696 0.00101813 -0.000369458 0.00813991 0.0198908 0.0156033 0.0105095 -0.0255024 
-0.0246809 -0.0163652 0.00204151 0.0281458 -0.0172531 -0.018913 -0.0473936 0.00673342 -0.00515045 
-0.00067404 0.0119237 -0.159672 -0.161853 -0.056056 0.0036749 0.00295752 0.00608028 -0.00238411 
0.000630231 -0.00149923 -0.000620879 4.58942e-05 -0.000611134 0.00450973 0.00584566 0.00935553 -0.000693756 
0.00245242 0.00346677 -9.22655e-06 0.000423414 -0.0130743 0.034013 -0.0374708 -0.0336938 -0.0186107 
0.0120574 0.0148865 0.00628694 0.0014187 -0.000850796 0.0049137 -0.000418355 0.000526585 -0.0016417 
0.00145268 0.00479829 0.00616929 0.00919477 0.010723 0.00905081 0.016224 -0.0015056 -0.000846884 
-0.0424956 -0.0303269 -0.0396425 -0.0174437 -0.00128095 0.00957371 -0.0181251 -0.00224103 0.00286346 
-0.00287371 -0.00140721 -0.00125132 0.00163515 -0.0486597 -0.101623 -0.0260439 -0.0805289 -0.00381293 